 Entering Gaussian System, Link 0=g16
 Input=P1.com
 Output=P1.log
 Initial command:
 /opt/g16/l1.exe "/scratch/Grace/g03/Gau-7797.inp" -scrdir="/scratch/Grace/g03/"
 Entering Link 1 = /opt/g16/l1.exe PID=      7798.
  
 Copyright (c) 1988,1990,1992,1993,1995,1998,2003,2009,2016,
            Gaussian, Inc.  All Rights Reserved.
  
 This is part of the Gaussian(R) 16 program.  It is based on
 the Gaussian(R) 09 system (copyright 2009, Gaussian, Inc.),
 the Gaussian(R) 03 system (copyright 2003, Gaussian, Inc.),
 the Gaussian(R) 98 system (copyright 1998, Gaussian, Inc.),
 the Gaussian(R) 94 system (copyright 1995, Gaussian, Inc.),
 the Gaussian 92(TM) system (copyright 1992, Gaussian, Inc.),
 the Gaussian 90(TM) system (copyright 1990, Gaussian, Inc.),
 the Gaussian 88(TM) system (copyright 1988, Gaussian, Inc.),
 the Gaussian 86(TM) system (copyright 1986, Carnegie Mellon
 University), and the Gaussian 82(TM) system (copyright 1983,
 Carnegie Mellon University). Gaussian is a federally registered
 trademark of Gaussian, Inc.
  
 This software contains proprietary and confidential information,
 including trade secrets, belonging to Gaussian, Inc.
  
 This software is provided under written license and may be
 used, copied, transmitted, or stored only in accord with that
 written license.
  
 The following legend is applicable only to US Government
 contracts under FAR:
  
                    RESTRICTED RIGHTS LEGEND
  
 Use, reproduction and disclosure by the US Government is
 subject to restrictions as set forth in subparagraphs (a)
 and (c) of the Commercial Computer Software - Restricted
 Rights clause in FAR 52.227-19.
  
 Gaussian, Inc.
 340 Quinnipiac St., Bldg. 40, Wallingford CT 06492
  
  
 ---------------------------------------------------------------
 Warning -- This program may not be used in any manner that
 competes with the business of Gaussian, Inc. or will provide
 assistance to any competitor of Gaussian, Inc.  The licensee
 of this program is prohibited from giving any competitor of
 Gaussian, Inc. access to this program.  By using this program,
 the user acknowledges that Gaussian, Inc. is engaged in the
 business of creating and licensing software in the field of
 computational chemistry and represents and warrants to the
 licensee that it is not a competitor of Gaussian, Inc. and that
 it will not use this program in any manner prohibited above.
 ---------------------------------------------------------------
  

 Cite this work as:
 Gaussian 16, Revision A.03,
 M. J. Frisch, G. W. Trucks, H. B. Schlegel, G. E. Scuseria, 
 M. A. Robb, J. R. Cheeseman, G. Scalmani, V. Barone, 
 G. A. Petersson, H. Nakatsuji, X. Li, M. Caricato, A. V. Marenich, 
 J. Bloino, B. G. Janesko, R. Gomperts, B. Mennucci, H. P. Hratchian, 
 J. V. Ortiz, A. F. Izmaylov, J. L. Sonnenberg, D. Williams-Young, 
 F. Ding, F. Lipparini, F. Egidi, J. Goings, B. Peng, A. Petrone, 
 T. Henderson, D. Ranasinghe, V. G. Zakrzewski, J. Gao, N. Rega, 
 G. Zheng, W. Liang, M. Hada, M. Ehara, K. Toyota, R. Fukuda, 
 J. Hasegawa, M. Ishida, T. Nakajima, Y. Honda, O. Kitao, H. Nakai, 
 T. Vreven, K. Throssell, J. A. Montgomery, Jr., J. E. Peralta, 
 F. Ogliaro, M. J. Bearpark, J. J. Heyd, E. N. Brothers, K. N. Kudin, 
 V. N. Staroverov, T. A. Keith, R. Kobayashi, J. Normand, 
 K. Raghavachari, A. P. Rendell, J. C. Burant, S. S. Iyengar, 
 J. Tomasi, M. Cossi, J. M. Millam, M. Klene, C. Adamo, R. Cammi, 
 J. W. Ochterski, R. L. Martin, K. Morokuma, O. Farkas, 
 J. B. Foresman, and D. J. Fox, Gaussian, Inc., Wallingford CT, 2016.
 
 ******************************************
 Gaussian 16:  ES64L-G16RevA.03 25-Dec-2016
                15-Apr-2019 
 ******************************************
 ------------------------------------------
 #B3LYP/6-31+G(d,p) OPT Freq=hpmodes Nosymm
 ------------------------------------------
 1/18=20,19=15,26=3,38=1/1,3;
 2/9=110,12=2,15=1,17=6,18=5,40=1/2;
 3/5=1,6=6,7=111,11=2,25=1,30=1,71=1,74=-5/1,2,3;
 4//1;
 5/5=2,38=5/2;
 6/7=2,8=2,9=2,10=2,28=1/1;
 7/30=1/1,2,3,16;
 1/18=20,19=15,26=3/3(2);
 2/9=110,15=1/2;
 99//99;
 2/9=110,15=1/2;
 3/5=1,6=6,7=111,11=2,25=1,30=1,71=1,74=-5/1,2,3;
 4/5=5,16=3,69=1/1;
 5/5=2,38=5/2;
 7/30=1/1,2,3,16;
 1/18=20,19=15,26=3/3(-5);
 2/9=110,15=1/2;
 6/7=2,8=2,9=2,10=2,19=2,28=1/1;
 99/9=1/99;
 ----------------------------------------------------------------------
 initial structure is the last point of TS2_R.log (/TS2_IRC/CalcFC_LQA_
 Forward_2.log)
 ----------------------------------------------------------------------
 Symbolic Z-matrix:
 Charge =  0 Multiplicity = 1
 C                    -0.05805   1.60751   1.31674 
 C                    -1.21441  -0.08557   0.12496 
 C                    -0.53983  -0.83283  -1.03433 
 C                     0.89104  -0.26839  -1.1144 
 C                     0.86954   1.30321  -1.11803 
 C                     1.00415   2.00629   0.26003 
 H                    -0.99377   2.14893   1.1681 
 H                     0.29823   1.82803   2.32824 
 H                     1.34148  -0.60775  -2.05374 
 H                     1.70832   1.64353  -1.73504 
 H                    -0.03756   1.65528  -1.62703 
 H                     2.00504   1.80701   0.66026 
 H                     0.95755   3.091     0.10364 
 H                    -1.12745  -0.6581   -1.9379 
 O                    -2.29857   0.45742  -0.02288 
 C                     1.67842  -0.82756   0.08218 
 H                     1.94422  -1.87193  -0.10065 
 H                     2.61475  -0.27491   0.20678 
 C                     0.78658  -0.73666   1.3556 
 N                    -0.37022   0.16746   1.20972 
 H                     0.39485  -1.72613   1.60152 
 H                     1.35549  -0.39466   2.22416 
 F                    -0.50544  -2.22891  -0.83647 
 

 GradGradGradGradGradGradGradGradGradGradGradGradGradGradGradGradGradGrad
 Berny optimization.
 Initialization pass.
                           ----------------------------
                           !    Initial Parameters    !
                           ! (Angstroms and Degrees)  !
 --------------------------                            --------------------------
 ! Name  Definition              Value          Derivative Info.                !
 --------------------------------------------------------------------------------
 ! R1    R(1,6)                  1.5505         estimate D2E/DX2                !
 ! R2    R(1,7)                  1.0912         estimate D2E/DX2                !
 ! R3    R(1,8)                  1.0949         estimate D2E/DX2                !
 ! R4    R(1,20)                 1.4774         estimate D2E/DX2                !
 ! R5    R(2,3)                  1.5354         estimate D2E/DX2                !
 ! R6    R(2,15)                 1.2215         estimate D2E/DX2                !
 ! R7    R(2,20)                 1.3976         estimate D2E/DX2                !
 ! R8    R(3,4)                  1.5403         estimate D2E/DX2                !
 ! R9    R(3,14)                 1.0919         estimate D2E/DX2                !
 ! R10   R(3,23)                 1.4104         estimate D2E/DX2                !
 ! R11   R(4,5)                  1.5718         estimate D2E/DX2                !
 ! R12   R(4,9)                  1.0956         estimate D2E/DX2                !
 ! R13   R(4,16)                 1.5377         estimate D2E/DX2                !
 ! R14   R(5,6)                  1.5529         estimate D2E/DX2                !
 ! R15   R(5,10)                 1.0955         estimate D2E/DX2                !
 ! R16   R(5,11)                 1.0981         estimate D2E/DX2                !
 ! R17   R(6,12)                 1.0962         estimate D2E/DX2                !
 ! R18   R(6,13)                 1.0969         estimate D2E/DX2                !
 ! R19   R(16,17)                1.0931         estimate D2E/DX2                !
 ! R20   R(16,18)                1.0944         estimate D2E/DX2                !
 ! R21   R(16,19)                1.5573         estimate D2E/DX2                !
 ! R22   R(19,20)                1.4754         estimate D2E/DX2                !
 ! R23   R(19,21)                1.0922         estimate D2E/DX2                !
 ! R24   R(19,22)                1.0932         estimate D2E/DX2                !
 ! A1    A(6,1,7)              111.5313         estimate D2E/DX2                !
 ! A2    A(6,1,8)              110.7885         estimate D2E/DX2                !
 ! A3    A(6,1,20)             110.2481         estimate D2E/DX2                !
 ! A4    A(7,1,8)              107.7548         estimate D2E/DX2                !
 ! A5    A(7,1,20)             107.0117         estimate D2E/DX2                !
 ! A6    A(8,1,20)             109.3908         estimate D2E/DX2                !
 ! A7    A(3,2,15)             120.9919         estimate D2E/DX2                !
 ! A8    A(3,2,20)             114.1268         estimate D2E/DX2                !
 ! A9    A(15,2,20)            123.3362         estimate D2E/DX2                !
 ! A10   A(2,3,4)              105.6078         estimate D2E/DX2                !
 ! A11   A(2,3,14)             108.0887         estimate D2E/DX2                !
 ! A12   A(2,3,23)             112.7387         estimate D2E/DX2                !
 ! A13   A(4,3,14)             113.4702         estimate D2E/DX2                !
 ! A14   A(4,3,23)             110.3263         estimate D2E/DX2                !
 ! A15   A(14,3,23)            106.7145         estimate D2E/DX2                !
 ! A16   A(3,4,5)              110.7223         estimate D2E/DX2                !
 ! A17   A(3,4,9)              108.2396         estimate D2E/DX2                !
 ! A18   A(3,4,16)             107.5766         estimate D2E/DX2                !
 ! A19   A(5,4,9)              108.2617         estimate D2E/DX2                !
 ! A20   A(5,4,16)             111.864          estimate D2E/DX2                !
 ! A21   A(9,4,16)             110.121          estimate D2E/DX2                !
 ! A22   A(4,5,6)              116.7101         estimate D2E/DX2                !
 ! A23   A(4,5,10)             107.5451         estimate D2E/DX2                !
 ! A24   A(4,5,11)             109.448          estimate D2E/DX2                !
 ! A25   A(6,5,10)             107.0255         estimate D2E/DX2                !
 ! A26   A(6,5,11)             109.7414         estimate D2E/DX2                !
 ! A27   A(10,5,11)            105.7724         estimate D2E/DX2                !
 ! A28   A(1,6,5)              115.4028         estimate D2E/DX2                !
 ! A29   A(1,6,12)             109.2647         estimate D2E/DX2                !
 ! A30   A(1,6,13)             108.8082         estimate D2E/DX2                !
 ! A31   A(5,6,12)             108.7133         estimate D2E/DX2                !
 ! A32   A(5,6,13)             108.5124         estimate D2E/DX2                !
 ! A33   A(12,6,13)            105.7004         estimate D2E/DX2                !
 ! A34   A(4,16,17)            109.9868         estimate D2E/DX2                !
 ! A35   A(4,16,18)            110.0643         estimate D2E/DX2                !
 ! A36   A(4,16,19)            108.7743         estimate D2E/DX2                !
 ! A37   A(17,16,18)           107.0669         estimate D2E/DX2                !
 ! A38   A(17,16,19)           109.3773         estimate D2E/DX2                !
 ! A39   A(18,16,19)           111.5558         estimate D2E/DX2                !
 ! A40   A(16,19,20)           113.8236         estimate D2E/DX2                !
 ! A41   A(16,19,21)           109.6715         estimate D2E/DX2                !
 ! A42   A(16,19,22)           111.7102         estimate D2E/DX2                !
 ! A43   A(20,19,21)           107.2293         estimate D2E/DX2                !
 ! A44   A(20,19,22)           107.15           estimate D2E/DX2                !
 ! A45   A(21,19,22)           106.9283         estimate D2E/DX2                !
 ! A46   A(1,20,2)             111.1198         estimate D2E/DX2                !
 ! A47   A(1,20,19)            115.1175         estimate D2E/DX2                !
 ! A48   A(2,20,19)            116.0636         estimate D2E/DX2                !
 ! D1    D(7,1,6,5)            -81.2375         estimate D2E/DX2                !
 ! D2    D(7,1,6,12)           155.9277         estimate D2E/DX2                !
 ! D3    D(7,1,6,13)            40.9753         estimate D2E/DX2                !
 ! D4    D(8,1,6,5)            158.7339         estimate D2E/DX2                !
 ! D5    D(8,1,6,12)            35.8992         estimate D2E/DX2                !
 ! D6    D(8,1,6,13)           -79.0532         estimate D2E/DX2                !
 ! D7    D(20,1,6,5)            37.4982         estimate D2E/DX2                !
 ! D8    D(20,1,6,12)          -85.3366         estimate D2E/DX2                !
 ! D9    D(20,1,6,13)          159.711          estimate D2E/DX2                !
 ! D10   D(6,1,20,2)           -77.2395         estimate D2E/DX2                !
 ! D11   D(6,1,20,19)           57.2902         estimate D2E/DX2                !
 ! D12   D(7,1,20,2)            44.2232         estimate D2E/DX2                !
 ! D13   D(7,1,20,19)          178.7529         estimate D2E/DX2                !
 ! D14   D(8,1,20,2)           160.6954         estimate D2E/DX2                !
 ! D15   D(8,1,20,19)          -64.7749         estimate D2E/DX2                !
 ! D16   D(15,2,3,4)           128.7508         estimate D2E/DX2                !
 ! D17   D(15,2,3,14)            6.9973         estimate D2E/DX2                !
 ! D18   D(15,2,3,23)         -110.7094         estimate D2E/DX2                !
 ! D19   D(20,2,3,4)           -37.5277         estimate D2E/DX2                !
 ! D20   D(20,2,3,14)         -159.2812         estimate D2E/DX2                !
 ! D21   D(20,2,3,23)           83.0121         estimate D2E/DX2                !
 ! D22   D(3,2,20,1)           109.8424         estimate D2E/DX2                !
 ! D23   D(3,2,20,19)          -24.223          estimate D2E/DX2                !
 ! D24   D(15,2,20,1)          -56.0712         estimate D2E/DX2                !
 ! D25   D(15,2,20,19)         169.8635         estimate D2E/DX2                !
 ! D26   D(2,3,4,5)            -49.4096         estimate D2E/DX2                !
 ! D27   D(2,3,4,9)           -167.9273         estimate D2E/DX2                !
 ! D28   D(2,3,4,16)            73.1041         estimate D2E/DX2                !
 ! D29   D(14,3,4,5)            68.8031         estimate D2E/DX2                !
 ! D30   D(14,3,4,9)           -49.7145         estimate D2E/DX2                !
 ! D31   D(14,3,4,16)         -168.6832         estimate D2E/DX2                !
 ! D32   D(23,3,4,5)          -171.5137         estimate D2E/DX2                !
 ! D33   D(23,3,4,9)            69.9687         estimate D2E/DX2                !
 ! D34   D(23,3,4,16)          -49.0            estimate D2E/DX2                !
 ! D35   D(3,4,5,6)             92.831          estimate D2E/DX2                !
 ! D36   D(3,4,5,10)          -146.9803         estimate D2E/DX2                !
 ! D37   D(3,4,5,11)           -32.5262         estimate D2E/DX2                !
 ! D38   D(9,4,5,6)           -148.6648         estimate D2E/DX2                !
 ! D39   D(9,4,5,10)           -28.4761         estimate D2E/DX2                !
 ! D40   D(9,4,5,11)            85.978          estimate D2E/DX2                !
 ! D41   D(16,4,5,6)           -27.149          estimate D2E/DX2                !
 ! D42   D(16,4,5,10)           93.0397         estimate D2E/DX2                !
 ! D43   D(16,4,5,11)         -152.5062         estimate D2E/DX2                !
 ! D44   D(3,4,16,17)           75.8664         estimate D2E/DX2                !
 ! D45   D(3,4,16,18)         -166.4029         estimate D2E/DX2                !
 ! D46   D(3,4,16,19)          -43.904          estimate D2E/DX2                !
 ! D47   D(5,4,16,17)         -162.3276         estimate D2E/DX2                !
 ! D48   D(5,4,16,18)          -44.5969         estimate D2E/DX2                !
 ! D49   D(5,4,16,19)           77.9019         estimate D2E/DX2                !
 ! D50   D(9,4,16,17)          -41.8899         estimate D2E/DX2                !
 ! D51   D(9,4,16,18)           75.8408         estimate D2E/DX2                !
 ! D52   D(9,4,16,19)         -161.6604         estimate D2E/DX2                !
 ! D53   D(4,5,6,1)            -56.7702         estimate D2E/DX2                !
 ! D54   D(4,5,6,12)            66.3569         estimate D2E/DX2                !
 ! D55   D(4,5,6,13)          -179.1411         estimate D2E/DX2                !
 ! D56   D(10,5,6,1)          -177.2353         estimate D2E/DX2                !
 ! D57   D(10,5,6,12)          -54.1081         estimate D2E/DX2                !
 ! D58   D(10,5,6,13)           60.3938         estimate D2E/DX2                !
 ! D59   D(11,5,6,1)            68.4394         estimate D2E/DX2                !
 ! D60   D(11,5,6,12)         -168.4334         estimate D2E/DX2                !
 ! D61   D(11,5,6,13)          -53.9315         estimate D2E/DX2                !
 ! D62   D(4,16,19,20)         -16.3136         estimate D2E/DX2                !
 ! D63   D(4,16,19,21)         103.7991         estimate D2E/DX2                !
 ! D64   D(4,16,19,22)        -137.8307         estimate D2E/DX2                !
 ! D65   D(17,16,19,20)       -136.4622         estimate D2E/DX2                !
 ! D66   D(17,16,19,21)        -16.3495         estimate D2E/DX2                !
 ! D67   D(17,16,19,22)        102.0206         estimate D2E/DX2                !
 ! D68   D(18,16,19,20)        105.2797         estimate D2E/DX2                !
 ! D69   D(18,16,19,21)       -134.6076         estimate D2E/DX2                !
 ! D70   D(18,16,19,22)        -16.2375         estimate D2E/DX2                !
 ! D71   D(16,19,20,1)         -77.7081         estimate D2E/DX2                !
 ! D72   D(16,19,20,2)          54.5364         estimate D2E/DX2                !
 ! D73   D(21,19,20,1)         160.8121         estimate D2E/DX2                !
 ! D74   D(21,19,20,2)         -66.9434         estimate D2E/DX2                !
 ! D75   D(22,19,20,1)          46.3092         estimate D2E/DX2                !
 ! D76   D(22,19,20,2)         178.5536         estimate D2E/DX2                !
 --------------------------------------------------------------------------------
 Trust Radius=3.00D-01 FncErr=1.00D-07 GrdErr=1.00D-06 EigMax=2.50D+02 EigMin=1.00D-04
 Number of steps in this run=    138 maximum allowed number of steps=    138.
 GradGradGradGradGradGradGradGradGradGradGradGradGradGradGradGradGradGrad

                          Input orientation:                          
 ---------------------------------------------------------------------
 Center     Atomic      Atomic             Coordinates (Angstroms)
 Number     Number       Type             X           Y           Z
 ---------------------------------------------------------------------
      1          6           0       -0.058050    1.607514    1.316739
      2          6           0       -1.214412   -0.085572    0.124958
      3          6           0       -0.539834   -0.832832   -1.034331
      4          6           0        0.891036   -0.268390   -1.114404
      5          6           0        0.869540    1.303210   -1.118029
      6          6           0        1.004149    2.006289    0.260032
      7          1           0       -0.993765    2.148934    1.168103
      8          1           0        0.298230    1.828032    2.328240
      9          1           0        1.341481   -0.607754   -2.053736
     10          1           0        1.708319    1.643528   -1.735035
     11          1           0       -0.037556    1.655283   -1.627025
     12          1           0        2.005043    1.807012    0.660255
     13          1           0        0.957548    3.091002    0.103640
     14          1           0       -1.127448   -0.658098   -1.937900
     15          8           0       -2.298570    0.457418   -0.022876
     16          6           0        1.678423   -0.827555    0.082179
     17          1           0        1.944217   -1.871927   -0.100645
     18          1           0        2.614750   -0.274912    0.206775
     19          6           0        0.786578   -0.736662    1.355595
     20          7           0       -0.370217    0.167461    1.209718
     21          1           0        0.394850   -1.726130    1.601517
     22          1           0        1.355491   -0.394657    2.224157
     23          9           0       -0.505442   -2.228905   -0.836473
 ---------------------------------------------------------------------
                    Distance matrix (angstroms):
                    1          2          3          4          5
     1  C    0.000000
     2  C    2.371509   0.000000
     3  C    3.422709   1.535384   0.000000
     4  C    3.214069   2.449970   1.540258   0.000000
     5  C    2.623189   2.795816   2.560472   1.571751   0.000000
     6  C    1.550457   3.052235   3.481360   2.660081   1.552898
     7  H    1.091234   2.475854   3.734662   3.821749   3.068152
     8  H    1.094851   3.287007   4.369145   4.074089   3.532507
     9  H    4.269216   3.398819   2.151556   1.095634   2.179463
    10  H    3.526284   3.871914   3.417241   2.169923   1.095474
    11  H    2.944223   2.735875   2.606585   2.196721   1.098115
    12  H    2.174195   3.772706   4.039406   2.949190   2.169211
    13  H    2.168821   3.848180   4.351276   3.574013   2.167123
    14  H    4.107223   2.142599   1.091906   2.214564   2.916655
    15  O    2.852581   1.221512   2.404358   3.448451   3.457115
    16  C    3.235589   2.986781   2.483402   1.537678   2.575840
    17  H    4.257295   3.635780   2.849912   2.169845   3.503069
    18  H    3.452450   3.834713   3.435552   2.171807   2.700247
    19  C    2.492001   2.437693   2.735025   2.516165   3.207300
    20  N    1.477381   1.397639   2.462745   2.679975   2.871468
    21  H    3.376300   2.731553   2.935866   3.122088   4.098556
    22  H    2.613464   3.332652   3.794996   3.373077   3.780094
    23  F    4.422057   2.453745   1.410443   2.423018   3.800748
                    6          7          8          9         10
     6  C    0.000000
     7  H    2.199227   0.000000
     8  H    2.192620   1.765828   0.000000
     9  H    3.507212   4.840759   5.120853   0.000000
    10  H    2.146565   3.998112   4.304950   2.303131   0.000000
    11  H    2.183882   2.995124   3.973250   2.684243   1.749252
    12  H    1.096211   3.060665   2.386593   3.692852   2.419129
    13  H    1.096920   2.414166   2.641711   4.299125   2.457552
    14  H    4.058764   4.188622   5.139392   2.472158   3.657897
    15  O    3.658824   2.445848   3.761609   4.302204   4.515917
    16  C    2.918381   4.144793   3.741907   2.173471   3.067476
    17  H    4.006791   5.138948   4.722124   2.403329   3.883980
    18  H    2.792982   4.452029   3.780113   2.615704   2.876222
    19  C    2.961651   3.395797   2.786068   3.456598   4.008354
    20  N    2.484366   2.077686   2.110784   3.765767   3.894953
    21  H    4.012702   4.139109   3.628985   3.937988   4.920607
    22  H    3.121822   3.619960   2.463530   4.283220   4.466977
    23  F    4.627965   4.839655   5.207690   2.742441   4.550153
                   11         12         13         14         15
    11  H    0.000000
    12  H    3.070323   0.000000
    13  H    2.459008   1.748055   0.000000
    14  H    2.576090   4.758117   4.750878   0.000000
    15  O    3.019993   4.561705   4.189758   2.506635   0.000000
    16  C    3.468493   2.716946   3.984371   3.461553   4.180749
    17  H    4.324173   3.757294   5.064179   3.779420   4.840779
    18  H    3.758085   2.216257   3.753176   4.330186   4.972903
    19  C    3.911089   2.904898   4.030835   3.810089   3.583873
    20  N    3.220464   2.938009   3.396095   3.341025   2.306926
    21  H    4.695148   3.995221   5.075926   3.998194   3.828975
    22  H    4.579786   2.777599   4.099362   4.853566   4.373483
    23  F    3.991341   4.983107   5.596924   2.016796   3.330703
                   16         17         18         19         20
    16  C    0.000000
    17  H    1.093062   0.000000
    18  H    1.094370   1.759141   0.000000
    19  C    1.557317   2.179355   2.207989   0.000000
    20  N    2.541324   3.351531   3.179877   1.475430   0.000000
    21  H    2.182518   2.306328   2.996547   1.092234   2.079548
    22  H    2.209017   2.816670   2.381156   1.093174   2.079214
    23  F    2.752630   2.582577   3.826494   2.949791   3.154006
                   21         22         23
    21  H    0.000000
    22  H    1.755942   0.000000
    23  F    2.647093   4.024300   0.000000
 Symmetry turned off by external request.
 Stoichiometry    C8H12FNO
 Framework group  C1[X(C8H12FNO)]
 Deg. of freedom    63
 Full point group                 C1      NOp   1
 Rotational constants (GHZ):           1.5365787           1.2310296           1.0335763
 Standard basis: 6-31+G(d,p) (6D, 7F)
   269 basis functions,   436 primitive gaussians,   269 cartesian basis functions
    42 alpha electrons       42 beta electrons
       nuclear repulsion energy       693.2238268973 Hartrees.
 NAtoms=   23 NActive=   23 NUniq=   23 SFac= 1.00D+00 NAtFMM=   60 NAOKFM=F Big=F
 Integral buffers will be    131072 words long.
 Raffenetti 2 integral format.
 Two-electron integral symmetry is turned off.
 One-electron integrals computed using PRISM.
 NBasis=   269 RedAO= T EigKep=  9.76D-06  NBF=   269
 NBsUse=   269 1.00D-06 EigRej= -1.00D+00 NBFU=   269
 ExpMin= 4.38D-02 ExpMax= 7.00D+03 ExpMxC= 1.05D+03 IAcc=3 IRadAn=         5 AccDes= 0.00D+00
 Harris functional with IExCor=  402 and IRadAn=       5 diagonalized for initial guess.
 HarFok:  IExCor=  402 AccDes= 0.00D+00 IRadAn=         5 IDoV= 1 UseB2=F ITyADJ=14
 ICtDFT=  3500011 ScaDFX=  1.000000  1.000000  1.000000  1.000000
 FoFCou: FMM=F IPFlag=           0 FMFlag=      100000 FMFlg1=           0
         NFxFlg=           0 DoJE=T BraDBF=F KetDBF=T FulRan=T
         wScrn=  0.000000 ICntrl=       500 IOpCl=  0 I1Cent=   200000004 NGrid=           0
         NMat0=    1 NMatS0=      1 NMatT0=    0 NMatD0=    1 NMtDS0=    0 NMtDT0=    0
 Symmetry not used in FoFCou.
 Requested convergence on RMS density matrix=1.00D-08 within 128 cycles.
 Requested convergence on MAX density matrix=1.00D-06.
 Requested convergence on             energy=1.00D-06.
 No special actions if energy rises.
 SCF Done:  E(RB3LYP) =  -541.915329499     A.U. after   13 cycles
            NFock= 13  Conv=0.70D-08     -V/T= 2.0092

 **********************************************************************

            Population analysis using the SCF density.

 **********************************************************************

 Alpha  occ. eigenvalues --  -24.70726 -19.14704 -14.36399 -10.30082 -10.28122
 Alpha  occ. eigenvalues --  -10.23165 -10.23159 -10.21862 -10.21016 -10.20522
 Alpha  occ. eigenvalues --  -10.20275  -1.20362  -1.05718  -0.95168  -0.83105
 Alpha  occ. eigenvalues --   -0.79317  -0.75587  -0.69042  -0.67400  -0.63750
 Alpha  occ. eigenvalues --   -0.57604  -0.54775  -0.53354  -0.51232  -0.50765
 Alpha  occ. eigenvalues --   -0.47807  -0.46163  -0.44641  -0.43723  -0.43501
 Alpha  occ. eigenvalues --   -0.42677  -0.40876  -0.40445  -0.38547  -0.38215
 Alpha  occ. eigenvalues --   -0.35992  -0.35090  -0.34670  -0.33891  -0.33471
 Alpha  occ. eigenvalues --   -0.26943  -0.24750
 Alpha virt. eigenvalues --   -0.03919  -0.00837   0.00775   0.01305   0.01939
 Alpha virt. eigenvalues --    0.03313   0.03412   0.04554   0.04667   0.05266
 Alpha virt. eigenvalues --    0.07338   0.07700   0.08056   0.08102   0.09255
 Alpha virt. eigenvalues --    0.09423   0.09570   0.11338   0.12123   0.12593
 Alpha virt. eigenvalues --    0.12793   0.13247   0.13732   0.13906   0.14608
 Alpha virt. eigenvalues --    0.14821   0.15537   0.16211   0.17296   0.17581
 Alpha virt. eigenvalues --    0.18296   0.18660   0.19214   0.19538   0.20083
 Alpha virt. eigenvalues --    0.20752   0.21314   0.21936   0.22387   0.22669
 Alpha virt. eigenvalues --    0.23252   0.24358   0.25168   0.25935   0.25990
 Alpha virt. eigenvalues --    0.27909   0.28682   0.29475   0.30256   0.30769
 Alpha virt. eigenvalues --    0.32298   0.32450   0.33461   0.34334   0.34998
 Alpha virt. eigenvalues --    0.35153   0.36710   0.37074   0.37807   0.38126
 Alpha virt. eigenvalues --    0.39277   0.40024   0.40923   0.41394   0.43026
 Alpha virt. eigenvalues --    0.45453   0.47191   0.49060   0.51323   0.60642
 Alpha virt. eigenvalues --    0.61811   0.63903   0.65958   0.67693   0.68246
 Alpha virt. eigenvalues --    0.70187   0.70424   0.71782   0.72463   0.73649
 Alpha virt. eigenvalues --    0.75979   0.77540   0.79752   0.80362   0.81854
 Alpha virt. eigenvalues --    0.83833   0.85850   0.87542   0.88786   0.89701
 Alpha virt. eigenvalues --    0.92378   0.94119   0.95587   0.97215   0.99424
 Alpha virt. eigenvalues --    1.00687   1.02789   1.03878   1.04483   1.05425
 Alpha virt. eigenvalues --    1.07526   1.09703   1.10375   1.13113   1.13813
 Alpha virt. eigenvalues --    1.16033   1.16992   1.18691   1.21674   1.24642
 Alpha virt. eigenvalues --    1.30008   1.33495   1.34090   1.36367   1.38135
 Alpha virt. eigenvalues --    1.42107   1.42940   1.47456   1.48238   1.50404
 Alpha virt. eigenvalues --    1.51693   1.55721   1.57488   1.60917   1.64675
 Alpha virt. eigenvalues --    1.64927   1.67410   1.68623   1.70773   1.73813
 Alpha virt. eigenvalues --    1.74241   1.74812   1.76898   1.78486   1.79054
 Alpha virt. eigenvalues --    1.81219   1.81669   1.83411   1.86132   1.86212
 Alpha virt. eigenvalues --    1.87387   1.88482   1.91547   1.92491   1.93420
 Alpha virt. eigenvalues --    1.96681   1.97645   2.01603   2.01869   2.05873
 Alpha virt. eigenvalues --    2.07084   2.08279   2.09267   2.10705   2.12315
 Alpha virt. eigenvalues --    2.14685   2.16534   2.18841   2.19553   2.22970
 Alpha virt. eigenvalues --    2.25226   2.26612   2.28788   2.31528   2.33257
 Alpha virt. eigenvalues --    2.33470   2.34843   2.38672   2.39333   2.41707
 Alpha virt. eigenvalues --    2.45106   2.45419   2.48313   2.49346   2.50227
 Alpha virt. eigenvalues --    2.51311   2.55453   2.56648   2.58206   2.59361
 Alpha virt. eigenvalues --    2.61118   2.62947   2.64851   2.66444   2.69440
 Alpha virt. eigenvalues --    2.69920   2.71824   2.74658   2.78534   2.79174
 Alpha virt. eigenvalues --    2.80527   2.82587   2.84820   2.86751   2.87028
 Alpha virt. eigenvalues --    2.88519   2.91076   2.92731   2.96842   2.99777
 Alpha virt. eigenvalues --    3.07913   3.10315   3.20885   3.28463   3.29588
 Alpha virt. eigenvalues --    3.32177   3.34954   3.35230   3.38612   3.43645
 Alpha virt. eigenvalues --    3.47528   3.49373   3.52183   3.53716   3.56347
 Alpha virt. eigenvalues --    3.58470   4.26842   4.39694   4.44999   4.53669
 Alpha virt. eigenvalues --    4.59519   4.67308   4.75743   4.82841   4.86352
 Alpha virt. eigenvalues --    4.94638   6.26888
          Condensed to atoms (all electrons):
               1          2          3          4          5          6
     1  C    6.137377  -0.661420   0.212120  -0.247411   0.238184  -0.152346
     2  C   -0.661420   6.441613  -0.673398   0.470359  -0.257626   0.280445
     3  C    0.212120  -0.673398   6.215457  -0.291408   0.083403  -0.097529
     4  C   -0.247411   0.470359  -0.291408   6.477639  -0.447064   0.131064
     5  C    0.238184  -0.257626   0.083403  -0.447064   6.062947  -0.066728
     6  C   -0.152346   0.280445  -0.097529   0.131064  -0.066728   5.767394
     7  H    0.468596  -0.001049  -0.005299  -0.003354  -0.013568  -0.053157
     8  H    0.385703   0.010744  -0.006570   0.010683   0.011332  -0.079777
     9  H   -0.005516  -0.010284   0.014622   0.267698   0.015729   0.001526
    10  H    0.033776  -0.022331   0.027482  -0.069914   0.435040  -0.072051
    11  H    0.015016  -0.015379  -0.015677  -0.060800   0.432107  -0.043923
    12  H   -0.054839   0.002420  -0.007651   0.024912  -0.102247   0.469488
    13  H   -0.047351   0.003834  -0.001169   0.044466  -0.083482   0.409618
    14  H    0.012260  -0.088063   0.406656  -0.050872   0.017790  -0.011664
    15  O   -0.105805   0.706914  -0.230386   0.065605  -0.050962   0.034743
    16  C    0.088898  -0.097078   0.002959  -0.143304   0.148247  -0.134153
    17  H   -0.000634   0.019828  -0.015881  -0.025956  -0.010903   0.000367
    18  H    0.017277  -0.016258   0.020171  -0.063784   0.013951  -0.036421
    19  C   -0.253545  -0.068475   0.068054  -0.066630  -0.072340   0.065466
    20  N    0.145479  -0.032063  -0.120687  -0.021030  -0.038856  -0.145073
    21  H    0.005353  -0.024088   0.009605  -0.001653  -0.002568  -0.006384
    22  H    0.004012   0.022548  -0.022923   0.040153  -0.008353  -0.003163
    23  F    0.011407  -0.062374   0.156497  -0.080801   0.027612  -0.009401
               7          8          9         10         11         12
     1  C    0.468596   0.385703  -0.005516   0.033776   0.015016  -0.054839
     2  C   -0.001049   0.010744  -0.010284  -0.022331  -0.015379   0.002420
     3  C   -0.005299  -0.006570   0.014622   0.027482  -0.015677  -0.007651
     4  C   -0.003354   0.010683   0.267698  -0.069914  -0.060800   0.024912
     5  C   -0.013568   0.011332   0.015729   0.435040   0.432107  -0.102247
     6  C   -0.053157  -0.079777   0.001526  -0.072051  -0.043923   0.469488
     7  H    0.519766  -0.025150   0.000003  -0.000070   0.001619   0.004575
     8  H   -0.025150   0.577640   0.000005  -0.000113  -0.000052  -0.006957
     9  H    0.000003   0.000005   0.570765  -0.008538   0.000731   0.000014
    10  H   -0.000070  -0.000113  -0.008538   0.565271  -0.028016  -0.004874
    11  H    0.001619  -0.000052   0.000731  -0.028016   0.554525   0.004947
    12  H    0.004575  -0.006957   0.000014  -0.004874   0.004947   0.580461
    13  H   -0.005165   0.002615  -0.000069  -0.002045  -0.004335  -0.030992
    14  H   -0.000012   0.000007  -0.005038   0.000013   0.002250  -0.000004
    15  O    0.003227   0.000170  -0.000292   0.000404   0.000836   0.000237
    16  C   -0.000553  -0.008776   0.006603  -0.001651   0.001211  -0.043835
    17  H    0.000008   0.000001  -0.004636  -0.000031  -0.000110   0.000133
    18  H   -0.000011   0.000088  -0.001093   0.001437   0.000077   0.001145
    19  C    0.001750   0.018473   0.004342   0.000886   0.008516   0.040782
    20  N   -0.069474  -0.036127   0.007225  -0.001547  -0.016328  -0.019994
    21  H   -0.000150   0.000349  -0.000086   0.000003   0.000007   0.000037
    22  H    0.000290   0.003099  -0.000129   0.000014   0.000001   0.000295
    23  F    0.000012   0.000021   0.000088  -0.000325   0.000650   0.000033
              13         14         15         16         17         18
     1  C   -0.047351   0.012260  -0.105805   0.088898  -0.000634   0.017277
     2  C    0.003834  -0.088063   0.706914  -0.097078   0.019828  -0.016258
     3  C   -0.001169   0.406656  -0.230386   0.002959  -0.015881   0.020171
     4  C    0.044466  -0.050872   0.065605  -0.143304  -0.025956  -0.063784
     5  C   -0.083482   0.017790  -0.050962   0.148247  -0.010903   0.013951
     6  C    0.409618  -0.011664   0.034743  -0.134153   0.000367  -0.036421
     7  H   -0.005165  -0.000012   0.003227  -0.000553   0.000008  -0.000011
     8  H    0.002615   0.000007   0.000170  -0.008776   0.000001   0.000088
     9  H   -0.000069  -0.005038  -0.000292   0.006603  -0.004636  -0.001093
    10  H   -0.002045   0.000013   0.000404  -0.001651  -0.000031   0.001437
    11  H   -0.004335   0.002250   0.000836   0.001211  -0.000110   0.000077
    12  H   -0.030992  -0.000004   0.000237  -0.043835   0.000133   0.001145
    13  H    0.566591   0.000006   0.000020  -0.006492  -0.000003   0.000133
    14  H    0.000006   0.579415  -0.008271   0.018173  -0.000073  -0.000123
    15  O    0.000020  -0.008271   8.103187  -0.017081  -0.000035   0.000204
    16  C   -0.006492   0.018173  -0.017081   5.756421   0.423611   0.418742
    17  H   -0.000003  -0.000073  -0.000035   0.423611   0.539629  -0.030541
    18  H    0.000133  -0.000123   0.000204   0.418742  -0.030541   0.573598
    19  C   -0.000186  -0.005014   0.035846   0.014462  -0.058731  -0.035525
    20  N    0.007972   0.022264  -0.121484   0.004841   0.002432  -0.002761
    21  H    0.000008  -0.000002   0.001635  -0.069394  -0.007169   0.004291
    22  H    0.000014   0.000013  -0.000541  -0.085912   0.003068  -0.007661
    23  F    0.000017  -0.041635   0.002392  -0.020655   0.001381  -0.000028
              19         20         21         22         23
     1  C   -0.253545   0.145479   0.005353   0.004012   0.011407
     2  C   -0.068475  -0.032063  -0.024088   0.022548  -0.062374
     3  C    0.068054  -0.120687   0.009605  -0.022923   0.156497
     4  C   -0.066630  -0.021030  -0.001653   0.040153  -0.080801
     5  C   -0.072340  -0.038856  -0.002568  -0.008353   0.027612
     6  C    0.065466  -0.145073  -0.006384  -0.003163  -0.009401
     7  H    0.001750  -0.069474  -0.000150   0.000290   0.000012
     8  H    0.018473  -0.036127   0.000349   0.003099   0.000021
     9  H    0.004342   0.007225  -0.000086  -0.000129   0.000088
    10  H    0.000886  -0.001547   0.000003   0.000014  -0.000325
    11  H    0.008516  -0.016328   0.000007   0.000001   0.000650
    12  H    0.040782  -0.019994   0.000037   0.000295   0.000033
    13  H   -0.000186   0.007972   0.000008   0.000014   0.000017
    14  H   -0.005014   0.022264  -0.000002   0.000013  -0.041635
    15  O    0.035846  -0.121484   0.001635  -0.000541   0.002392
    16  C    0.014462   0.004841  -0.069394  -0.085912  -0.020655
    17  H   -0.058731   0.002432  -0.007169   0.003068   0.001381
    18  H   -0.035525  -0.002761   0.004291  -0.007661  -0.000028
    19  C    5.640039   0.077532   0.441095   0.425292  -0.001682
    20  N    0.077532   7.538669  -0.034224  -0.053121   0.004489
    21  H    0.441095  -0.034224   0.540924  -0.024524  -0.000933
    22  H    0.425292  -0.053121  -0.024524   0.563353   0.000483
    23  F   -0.001682   0.004489  -0.000933   0.000483   9.350052
 Mulliken charges:
               1
     1  C   -0.246590
     2  C    0.071181
     3  C    0.271551
     4  C    0.041401
     5  C   -0.331646
     6  C   -0.248343
     7  H    0.177168
     8  H    0.142593
     9  H    0.146331
    10  H    0.147182
    11  H    0.162126
    12  H    0.141914
    13  H    0.145996
    14  H    0.151925
    15  O   -0.420564
    16  C   -0.255285
    17  H    0.164246
    18  H    0.143092
    19  C   -0.280407
    20  N   -0.098132
    21  H    0.167868
    22  H    0.143693
    23  F   -0.337302
 Sum of Mulliken charges =  -0.00000
 Mulliken charges with hydrogens summed into heavy atoms:
               1
     1  C    0.073171
     2  C    0.071181
     3  C    0.423477
     4  C    0.187732
     5  C   -0.022338
     6  C    0.039567
    15  O   -0.420564
    16  C    0.052053
    19  C    0.031154
    20  N   -0.098132
    23  F   -0.337302
 Electronic spatial extent (au):  <R**2>=           1391.6654
 Charge=             -0.0000 electrons
 Dipole moment (field-independent basis, Debye):
    X=              4.3662    Y=              1.4393    Z=             -0.0989  Tot=              4.5984
 Quadrupole moment (field-independent basis, Debye-Ang):
   XX=            -73.6010   YY=            -67.3693   ZZ=            -63.1792
   XY=              1.0421   XZ=              1.3574   YZ=             -0.8145
 Traceless Quadrupole moment (field-independent basis, Debye-Ang):
   XX=             -5.5512   YY=              0.6806   ZZ=              4.8706
   XY=              1.0421   XZ=              1.3574   YZ=             -0.8145
 Octapole moment (field-independent basis, Debye-Ang**2):
  XXX=              2.8508  YYY=             -7.9468  ZZZ=            -10.0985  XYY=             -4.2383
  XXY=            -13.9302  XXZ=             -2.7535  XZZ=             -3.9060  YZZ=             -6.8771
  YYZ=              5.6405  XYZ=             -0.0767
 Hexadecapole moment (field-independent basis, Debye-Ang**3):
 XXXX=           -674.1481 YYYY=           -708.3986 ZZZZ=           -474.7638 XXXY=             -9.3376
 XXXZ=             -2.1190 YYYX=            -37.0867 YYYZ=            -66.5501 ZZZX=              9.9205
 ZZZY=            -48.0976 XXYY=           -220.2794 XXZZ=           -179.5178 YYZZ=           -195.6679
 XXYZ=            -18.0513 YYXZ=             -4.8651 ZZXY=             -7.4676
 N-N= 6.932238268973D+02 E-N=-2.650553987302D+03  KE= 5.369806872179D+02
 Calling FoFJK, ICntrl=      2127 FMM=F ISym2X=0 I1Cent= 0 IOpClX= 0 NMat=1 NMatS=1 NMatT=0.
 -------------------------------------------------------------------
 Center     Atomic                   Forces (Hartrees/Bohr)
 Number     Number              X              Y              Z
 -------------------------------------------------------------------
      1        6          -0.000058922    0.000003886    0.000031524
      2        6          -0.000388966    0.000167366   -0.000110012
      3        6           0.000039544    0.000155086    0.000060289
      4        6           0.000032252    0.000080654   -0.000048567
      5        6          -0.000072070    0.000005829   -0.000010177
      6        6          -0.000018659   -0.000041063    0.000025469
      7        1           0.000050961   -0.000030780   -0.000028740
      8        1          -0.000025604   -0.000011277   -0.000007522
      9        1          -0.000007576    0.000001265    0.000019524
     10        1           0.000012003   -0.000000126    0.000011283
     11        1           0.000063195   -0.000020861    0.000002969
     12        1           0.000025124    0.000014876   -0.000013716
     13        1          -0.000008151   -0.000016848   -0.000018774
     14        1          -0.000126237    0.000021388   -0.000120879
     15        8           0.000353916   -0.000050277    0.000086641
     16        6           0.000009941    0.000003308   -0.000025809
     17        1          -0.000021985    0.000018199    0.000009529
     18        1           0.000020249    0.000002067    0.000003397
     19        6          -0.000017876   -0.000068571   -0.000057533
     20        7           0.000037937    0.000012787    0.000085048
     21        1           0.000021483    0.000004767    0.000028276
     22        1          -0.000003390    0.000049678    0.000025076
     23        9           0.000082834   -0.000301351    0.000052705
 -------------------------------------------------------------------
 Cartesian Forces:  Max     0.000388966 RMS     0.000088921

 GradGradGradGradGradGradGradGradGradGradGradGradGradGradGradGradGradGrad
 Berny optimization.
 FormGI is forming the generalized inverse of G from B-inverse, IUseBI=4.
 Internal  Forces:  Max     0.000346147 RMS     0.000046361
 Search for a local minimum.
 Step number   1 out of a maximum of  138
 All quantities printed in internal units (Hartrees-Bohrs-Radians)
 Mixed Optimization -- En-DIIS/RFO-DIIS
 Second derivative matrix not updated -- first step.
 ITU=  0
     Eigenvalues ---    0.00412   0.00442   0.00732   0.00919   0.01192
     Eigenvalues ---    0.02125   0.02410   0.03103   0.03504   0.03696
     Eigenvalues ---    0.03804   0.04416   0.04577   0.04656   0.04754
     Eigenvalues ---    0.04875   0.05210   0.05537   0.05787   0.06067
     Eigenvalues ---    0.07634   0.07685   0.08077   0.08268   0.08588
     Eigenvalues ---    0.08755   0.08890   0.08958   0.09186   0.09644
     Eigenvalues ---    0.09702   0.11862   0.12570   0.12940   0.15523
     Eigenvalues ---    0.17754   0.18494   0.20020   0.23961   0.24604
     Eigenvalues ---    0.25053   0.26075   0.26970   0.27225   0.27677
     Eigenvalues ---    0.27975   0.33086   0.33863   0.33891   0.34025
     Eigenvalues ---    0.34105   0.34170   0.34188   0.34258   0.34312
     Eigenvalues ---    0.34448   0.34461   0.34556   0.34593   0.34670
     Eigenvalues ---    0.42750   0.43933   0.94716
 RFO step:  Lambda=-2.04796787D-06 EMin= 4.11990091D-03
 Linear search not attempted -- first point.
 Iteration  1 RMS(Cart)=  0.00092263 RMS(Int)=  0.00000101
 Iteration  2 RMS(Cart)=  0.00000099 RMS(Int)=  0.00000016
 Variable       Old X    -DE/DX   Delta X   Delta X   Delta X     New X
                                 (Linear)    (Quad)   (Total)
    R1        2.92994  -0.00001   0.00000  -0.00004  -0.00004   2.92990
    R2        2.06213  -0.00006   0.00000  -0.00016  -0.00016   2.06197
    R3        2.06897  -0.00002   0.00000  -0.00005  -0.00005   2.06892
    R4        2.79185  -0.00006   0.00000  -0.00021  -0.00021   2.79164
    R5        2.90146   0.00007   0.00000   0.00018   0.00018   2.90163
    R6        2.30832  -0.00035   0.00000  -0.00037  -0.00037   2.30796
    R7        2.64116   0.00003   0.00000   0.00004   0.00004   2.64120
    R8        2.91067   0.00006   0.00000   0.00016   0.00016   2.91083
    R9        2.06340   0.00017   0.00000   0.00050   0.00050   2.06390
   R10        2.66535   0.00031   0.00000   0.00070   0.00070   2.66605
   R11        2.97018  -0.00004   0.00000  -0.00014  -0.00014   2.97004
   R12        2.07045  -0.00002   0.00000  -0.00006  -0.00006   2.07039
   R13        2.90579   0.00001   0.00000   0.00000  -0.00000   2.90579
   R14        2.93455  -0.00001   0.00000   0.00001   0.00001   2.93456
   R15        2.07015   0.00000   0.00000   0.00001   0.00001   2.07016
   R16        2.07514  -0.00006   0.00000  -0.00018  -0.00018   2.07495
   R17        2.07154   0.00002   0.00000   0.00005   0.00005   2.07159
   R18        2.07288  -0.00001   0.00000  -0.00004  -0.00004   2.07284
   R19        2.06559  -0.00002   0.00000  -0.00007  -0.00007   2.06552
   R20        2.06806   0.00002   0.00000   0.00005   0.00005   2.06811
   R21        2.94290   0.00002   0.00000   0.00015   0.00015   2.94306
   R22        2.78816  -0.00000   0.00000   0.00004   0.00004   2.78820
   R23        2.06402  -0.00000   0.00000  -0.00001  -0.00001   2.06401
   R24        2.06580   0.00003   0.00000   0.00009   0.00009   2.06589
    A1        1.94659  -0.00001   0.00000  -0.00033  -0.00033   1.94626
    A2        1.93362   0.00002   0.00000   0.00037   0.00037   1.93399
    A3        1.92419  -0.00000   0.00000  -0.00007  -0.00007   1.92412
    A4        1.88068   0.00001   0.00000   0.00012   0.00012   1.88080
    A5        1.86771   0.00001   0.00000  -0.00016  -0.00016   1.86754
    A6        1.90923  -0.00001   0.00000   0.00006   0.00006   1.90929
    A7        2.11171   0.00009   0.00000   0.00027   0.00027   2.11197
    A8        1.99189   0.00000   0.00000  -0.00019  -0.00019   1.99170
    A9        2.15262  -0.00009   0.00000  -0.00059  -0.00059   2.15203
   A10        1.84320  -0.00003   0.00000  -0.00033  -0.00033   1.84287
   A11        1.88650  -0.00001   0.00000  -0.00006  -0.00006   1.88645
   A12        1.96766   0.00005   0.00000   0.00018   0.00018   1.96784
   A13        1.98043   0.00002   0.00000   0.00047   0.00047   1.98090
   A14        1.92556  -0.00003   0.00000  -0.00053  -0.00053   1.92503
   A15        1.86252   0.00001   0.00000   0.00029   0.00029   1.86281
   A16        1.93247   0.00001   0.00000   0.00049   0.00049   1.93296
   A17        1.88914  -0.00000   0.00000   0.00006   0.00006   1.88920
   A18        1.87757   0.00000   0.00000  -0.00046  -0.00046   1.87710
   A19        1.88952   0.00000   0.00000   0.00011   0.00011   1.88964
   A20        1.95240  -0.00002   0.00000  -0.00017  -0.00017   1.95222
   A21        1.92197   0.00000   0.00000  -0.00002  -0.00002   1.92195
   A22        2.03698  -0.00000   0.00000   0.00000   0.00000   2.03698
   A23        1.87702   0.00001   0.00000  -0.00018  -0.00018   1.87684
   A24        1.91023  -0.00001   0.00000   0.00016   0.00016   1.91039
   A25        1.86795  -0.00001   0.00000  -0.00029  -0.00029   1.86766
   A26        1.91535   0.00001   0.00000   0.00033   0.00033   1.91568
   A27        1.84608  -0.00000   0.00000  -0.00006  -0.00006   1.84602
   A28        2.01416   0.00002   0.00000   0.00013   0.00013   2.01429
   A29        1.90703   0.00001   0.00000   0.00030   0.00030   1.90733
   A30        1.89906   0.00000   0.00000  -0.00011  -0.00011   1.89895
   A31        1.89740  -0.00001   0.00000   0.00006   0.00006   1.89746
   A32        1.89390  -0.00002   0.00000  -0.00034  -0.00034   1.89356
   A33        1.84482   0.00000   0.00000  -0.00006  -0.00006   1.84476
   A34        1.91963  -0.00000   0.00000  -0.00009  -0.00009   1.91954
   A35        1.92098  -0.00000   0.00000   0.00012   0.00012   1.92111
   A36        1.89847   0.00002   0.00000   0.00004   0.00004   1.89851
   A37        1.86867   0.00000   0.00000   0.00003   0.00003   1.86870
   A38        1.90899  -0.00001   0.00000  -0.00019  -0.00019   1.90880
   A39        1.94702  -0.00000   0.00000   0.00008   0.00008   1.94710
   A40        1.98660  -0.00001   0.00000   0.00008   0.00008   1.98667
   A41        1.91413   0.00001   0.00000   0.00025   0.00025   1.91438
   A42        1.94971   0.00002   0.00000  -0.00007  -0.00007   1.94964
   A43        1.87151   0.00002   0.00000   0.00032   0.00032   1.87182
   A44        1.87012  -0.00003   0.00000  -0.00055  -0.00055   1.86957
   A45        1.86625  -0.00001   0.00000  -0.00003  -0.00003   1.86622
   A46        1.93941  -0.00002   0.00000  -0.00057  -0.00057   1.93883
   A47        2.00918   0.00000   0.00000  -0.00007  -0.00007   2.00911
   A48        2.02569   0.00002   0.00000   0.00023   0.00023   2.02592
    D1       -1.41786   0.00002   0.00000   0.00070   0.00070  -1.41716
    D2        2.72145   0.00001   0.00000   0.00030   0.00030   2.72175
    D3        0.71515  -0.00000   0.00000   0.00026   0.00026   0.71542
    D4        2.77043   0.00001   0.00000   0.00052   0.00052   2.77095
    D5        0.62656  -0.00000   0.00000   0.00011   0.00011   0.62667
    D6       -1.37974  -0.00001   0.00000   0.00008   0.00008  -1.37966
    D7        0.65447   0.00001   0.00000   0.00025   0.00025   0.65471
    D8       -1.48940   0.00000   0.00000  -0.00016  -0.00016  -1.48957
    D9        2.78748  -0.00001   0.00000  -0.00019  -0.00019   2.78729
   D10       -1.34808  -0.00001   0.00000   0.00003   0.00003  -1.34805
   D11        0.99990  -0.00000   0.00000  -0.00029  -0.00029   0.99961
   D12        0.77184  -0.00002   0.00000  -0.00051  -0.00051   0.77133
   D13        3.11983  -0.00002   0.00000  -0.00083  -0.00083   3.11899
   D14        2.80466  -0.00002   0.00000  -0.00043  -0.00043   2.80424
   D15       -1.13054  -0.00001   0.00000  -0.00075  -0.00075  -1.13128
   D16        2.24713  -0.00004   0.00000  -0.00404  -0.00404   2.24309
   D17        0.12213  -0.00004   0.00000  -0.00438  -0.00438   0.11775
   D18       -1.93224  -0.00008   0.00000  -0.00480  -0.00480  -1.93704
   D19       -0.65498  -0.00003   0.00000  -0.00173  -0.00173  -0.65671
   D20       -2.77998  -0.00002   0.00000  -0.00206  -0.00206  -2.78205
   D21        1.44883  -0.00006   0.00000  -0.00249  -0.00249   1.44635
   D22        1.91711   0.00003   0.00000   0.00112   0.00112   1.91823
   D23       -0.42277   0.00003   0.00000   0.00159   0.00159  -0.42118
   D24       -0.97863   0.00001   0.00000   0.00336   0.00336  -0.97527
   D25        2.96468   0.00001   0.00000   0.00383   0.00383   2.96851
   D26       -0.86236   0.00001   0.00000   0.00124   0.00124  -0.86112
   D27       -2.93088   0.00000   0.00000   0.00078   0.00078  -2.93011
   D28        1.27591   0.00000   0.00000   0.00102   0.00102   1.27693
   D29        1.20084  -0.00001   0.00000   0.00121   0.00121   1.20205
   D30       -0.86768  -0.00002   0.00000   0.00075   0.00075  -0.86693
   D31       -2.94408  -0.00002   0.00000   0.00100   0.00100  -2.94308
   D32       -2.99348  -0.00000   0.00000   0.00152   0.00152  -2.99196
   D33        1.22118  -0.00001   0.00000   0.00106   0.00106   1.22225
   D34       -0.85521  -0.00001   0.00000   0.00131   0.00131  -0.85390
   D35        1.62021  -0.00000   0.00000  -0.00061  -0.00061   1.61960
   D36       -2.56529  -0.00001   0.00000  -0.00112  -0.00112  -2.56641
   D37       -0.56769  -0.00001   0.00000  -0.00120  -0.00120  -0.56889
   D38       -2.59469   0.00000   0.00000  -0.00018  -0.00018  -2.59487
   D39       -0.49700  -0.00000   0.00000  -0.00069  -0.00069  -0.49769
   D40        1.50060  -0.00001   0.00000  -0.00077  -0.00077   1.49983
   D41       -0.47384  -0.00000   0.00000  -0.00024  -0.00024  -0.47408
   D42        1.62385  -0.00001   0.00000  -0.00075  -0.00075   1.62310
   D43       -2.66174  -0.00001   0.00000  -0.00083  -0.00083  -2.66257
   D44        1.32412  -0.00001   0.00000  -0.00051  -0.00051   1.32361
   D45       -2.90428  -0.00000   0.00000  -0.00045  -0.00045  -2.90473
   D46       -0.76627  -0.00000   0.00000  -0.00025  -0.00025  -0.76652
   D47       -2.83315  -0.00000   0.00000  -0.00032  -0.00032  -2.83347
   D48       -0.77836   0.00000   0.00000  -0.00026  -0.00026  -0.77862
   D49        1.35965   0.00000   0.00000  -0.00005  -0.00005   1.35959
   D50       -0.73112  -0.00001   0.00000  -0.00030  -0.00030  -0.73142
   D51        1.32367  -0.00000   0.00000  -0.00024  -0.00024   1.32343
   D52       -2.82151  -0.00000   0.00000  -0.00004  -0.00004  -2.82154
   D53       -0.99083  -0.00000   0.00000  -0.00000  -0.00000  -0.99083
   D54        1.15815   0.00001   0.00000   0.00053   0.00053   1.15868
   D55       -3.12660  -0.00000   0.00000   0.00032   0.00032  -3.12629
   D56       -3.09334  -0.00000   0.00000   0.00045   0.00045  -3.09289
   D57       -0.94436   0.00002   0.00000   0.00098   0.00098  -0.94338
   D58        1.05407   0.00000   0.00000   0.00077   0.00077   1.05484
   D59        1.19449  -0.00000   0.00000   0.00051   0.00051   1.19500
   D60       -2.93972   0.00002   0.00000   0.00104   0.00104  -2.93868
   D61       -0.94128   0.00000   0.00000   0.00083   0.00083  -0.94046
   D62       -0.28473  -0.00001   0.00000   0.00019   0.00019  -0.28453
   D63        1.81164   0.00001   0.00000   0.00083   0.00083   1.81247
   D64       -2.40560   0.00002   0.00000   0.00092   0.00092  -2.40468
   D65       -2.38171  -0.00001   0.00000   0.00039   0.00039  -2.38132
   D66       -0.28535   0.00001   0.00000   0.00103   0.00103  -0.28432
   D67        1.78060   0.00002   0.00000   0.00112   0.00112   1.78171
   D68        1.83748  -0.00001   0.00000   0.00043   0.00043   1.83790
   D69       -2.34935   0.00001   0.00000   0.00107   0.00107  -2.34828
   D70       -0.28340   0.00002   0.00000   0.00115   0.00115  -0.28225
   D71       -1.35626   0.00001   0.00000  -0.00010  -0.00010  -1.35636
   D72        0.95184  -0.00000   0.00000  -0.00082  -0.00082   0.95102
   D73        2.80670  -0.00001   0.00000  -0.00069  -0.00069   2.80601
   D74       -1.16838  -0.00002   0.00000  -0.00141  -0.00141  -1.16979
   D75        0.80825   0.00000   0.00000  -0.00055  -0.00055   0.80770
   D76        3.11635  -0.00001   0.00000  -0.00126  -0.00126   3.11509
         Item               Value     Threshold  Converged?
 Maximum Force            0.000346     0.000450     YES
 RMS     Force            0.000046     0.000300     YES
 Maximum Displacement     0.006839     0.001800     NO 
 RMS     Displacement     0.000923     0.001200     YES
 Predicted change in Energy=-1.024017D-06
 GradGradGradGradGradGradGradGradGradGradGradGradGradGradGradGradGradGrad

                          Input orientation:                          
 ---------------------------------------------------------------------
 Center     Atomic      Atomic             Coordinates (Angstroms)
 Number     Number       Type             X           Y           Z
 ---------------------------------------------------------------------
      1          6           0       -0.058345    1.607101    1.317013
      2          6           0       -1.214420   -0.085100    0.124768
      3          6           0       -0.539940   -0.833313   -1.034089
      4          6           0        0.890736   -0.268219   -1.114718
      5          6           0        0.869358    1.303308   -1.117878
      6          6           0        1.003885    2.005974    0.260408
      7          1           0       -0.994014    2.148270    1.167793
      8          1           0        0.297392    1.827697    2.328660
      9          1           0        1.341050   -0.607448   -2.054125
     10          1           0        1.708592    1.643568   -1.734306
     11          1           0       -0.037233    1.655739   -1.627318
     12          1           0        2.004926    1.806988    0.660480
     13          1           0        0.957014    3.090651    0.104003
     14          1           0       -1.128240   -0.659789   -1.937764
     15          8           0       -2.296638    0.461037   -0.024090
     16          6           0        1.678302   -0.827546    0.081672
     17          1           0        1.943759   -1.871941   -0.101288
     18          1           0        2.614812   -0.275135    0.206165
     19          6           0        0.786664   -0.736812    1.355343
     20          7           0       -0.370344    0.167137    1.209836
     21          1           0        0.395530   -1.726347    1.601912
     22          1           0        1.355630   -0.394031    2.223626
     23          9           0       -0.504116   -2.229497   -0.834647
 ---------------------------------------------------------------------
                    Distance matrix (angstroms):
                    1          2          3          4          5
     1  C    0.000000
     2  C    2.370971   0.000000
     3  C    3.422752   1.535479   0.000000
     4  C    3.214171   2.449805   1.540345   0.000000
     5  C    2.623284   2.795350   2.560915   1.571676   0.000000
     6  C    1.550435   3.051536   3.481474   2.660024   1.552904
     7  H    1.091149   2.474757   3.734207   3.821199   3.067639
     8  H    1.094824   3.286564   4.369230   4.074527   3.532811
     9  H    4.269322   3.398655   2.151653   1.095603   2.179459
    10  H    3.526181   3.871493   3.417768   2.169725   1.095479
    11  H    2.944809   2.736074   2.607683   2.196702   1.098018
    12  H    2.174415   3.772423   4.039689   2.949446   2.169278
    13  H    2.168702   3.847201   4.351277   3.573749   2.166858
    14  H    4.108167   2.142833   1.092171   2.215174   2.918280
    15  O    2.849907   1.221319   2.404460   3.446830   3.453885
    16  C    3.235663   2.986792   2.483053   1.537678   2.575625
    17  H    4.257198   3.635657   2.849145   2.169752   3.502856
    18  H    3.452907   3.834809   3.435440   2.171916   2.700219
    19  C    2.491874   2.437905   2.734698   2.516269   3.207140
    20  N    1.477270   1.397663   2.462694   2.680188   2.871585
    21  H    3.376247   2.732689   2.936174   3.122731   4.098851
    22  H    2.612623   3.332536   3.794583   3.372906   3.779295
    23  F    4.421293   2.454271   1.410812   2.422945   3.800968
                    6          7          8          9         10
     6  C    0.000000
     7  H    2.198909   0.000000
     8  H    2.192848   1.765816   0.000000
     9  H    3.507238   4.840172   5.121324   0.000000
    10  H    2.146354   3.997623   4.305007   2.303138   0.000000
    11  H    2.184056   2.995107   3.973827   2.683998   1.749143
    12  H    1.096237   3.060634   2.387242   3.693145   2.418579
    13  H    1.096897   2.413761   2.641828   4.298946   2.457295
    14  H    4.060075   4.188997   5.140271   2.472584   3.659845
    15  O    3.655300   2.442164   3.759279   4.300637   4.512769
    16  C    2.918153   4.144443   3.742483   2.173433   3.066773
    17  H    4.006546   5.138402   4.722551   2.403284   3.883408
    18  H    2.793114   4.452106   3.781180   2.615686   2.875428
    19  C    2.961240   3.395539   2.786295   3.456668   4.007754
    20  N    2.484199   2.077407   2.110710   3.765939   3.894842
    21  H    4.012475   4.139076   3.628915   3.938598   4.920448
    22  H    3.120573   3.619240   2.463123   4.283097   4.465604
    23  F    4.627356   4.838864   5.206702   2.742773   4.550395
                   11         12         13         14         15
    11  H    0.000000
    12  H    3.070392   0.000000
    13  H    2.458652   1.748021   0.000000
    14  H    2.578438   4.759474   4.752146   0.000000
    15  O    3.017046   4.558911   4.185394   2.506702   0.000000
    16  C    3.468488   2.717070   3.984096   3.461639   4.179925
    17  H    4.324075   3.757466   5.063905   3.778774   4.840425
    18  H    3.758095   2.216664   3.753298   4.330685   4.971650
    19  C    3.911441   2.904809   4.030427   3.810163   3.583912
    20  N    3.221233   2.938164   3.395833   3.341496   2.306417
    21  H    4.696139   3.995110   5.075674   3.998591   3.830966
    22  H    4.579454   2.776598   4.098135   4.853597   4.372919
    23  F    3.992664   4.982359   5.596421   2.017518   3.333033
                   16         17         18         19         20
    16  C    0.000000
    17  H    1.093025   0.000000
    18  H    1.094398   1.759156   0.000000
    19  C    1.557398   2.179256   2.208139   0.000000
    20  N    2.541475   3.351411   3.180270   1.475454   0.000000
    21  H    2.182769   2.306317   2.996554   1.092228   2.079800
    22  H    2.209077   2.816973   2.381140   1.093223   2.078861
    23  F    2.751010   2.580262   3.824988   2.947927   3.153039
                   21         22         23
    21  H    0.000000
    22  H    1.755957   0.000000
    23  F    2.645627   4.022514   0.000000
 Symmetry turned off by external request.
 Stoichiometry    C8H12FNO
 Framework group  C1[X(C8H12FNO)]
 Deg. of freedom    63
 Full point group                 C1      NOp   1
 Rotational constants (GHZ):           1.5368976           1.2312207           1.0339601
 Standard basis: 6-31+G(d,p) (6D, 7F)
   269 basis functions,   436 primitive gaussians,   269 cartesian basis functions
    42 alpha electrons       42 beta electrons
       nuclear repulsion energy       693.2715797319 Hartrees.
 NAtoms=   23 NActive=   23 NUniq=   23 SFac= 1.00D+00 NAtFMM=   60 NAOKFM=F Big=F
 Integral buffers will be    131072 words long.
 Raffenetti 2 integral format.
 Two-electron integral symmetry is turned off.
 One-electron integrals computed using PRISM.
 NBasis=   269 RedAO= T EigKep=  9.75D-06  NBF=   269
 NBsUse=   269 1.00D-06 EigRej= -1.00D+00 NBFU=   269
 Initial guess from the checkpoint file:  "/scratch/Grace/g03/Gau-7798.chk"
 B after Tr=     0.000379    0.000367    0.000127
         Rot=    1.000000    0.000058    0.000054    0.000073 Ang=   0.01 deg.
 Requested convergence on RMS density matrix=1.00D-08 within 128 cycles.
 Requested convergence on MAX density matrix=1.00D-06.
 Requested convergence on             energy=1.00D-06.
 No special actions if energy rises.
 SCF Done:  E(RB3LYP) =  -541.915330551     A.U. after    9 cycles
            NFock=  9  Conv=0.34D-08     -V/T= 2.0092
 Calling FoFJK, ICntrl=      2127 FMM=F ISym2X=0 I1Cent= 0 IOpClX= 0 NMat=1 NMatS=1 NMatT=0.
 -------------------------------------------------------------------
 Center     Atomic                   Forces (Hartrees/Bohr)
 Number     Number              X              Y              Z
 -------------------------------------------------------------------
      1        6          -0.000021403    0.000043936    0.000041522
      2        6           0.000050657    0.000179048   -0.000051735
      3        6          -0.000115707    0.000021665    0.000010948
      4        6           0.000006726    0.000063609    0.000011974
      5        6           0.000009302   -0.000015924   -0.000018248
      6        6          -0.000016904    0.000001904    0.000026489
      7        1           0.000020838    0.000000686   -0.000000446
      8        1           0.000006202    0.000004314   -0.000005640
      9        1          -0.000011843   -0.000002260   -0.000000856
     10        1           0.000010317   -0.000004716    0.000000150
     11        1           0.000009905   -0.000006914    0.000005326
     12        1           0.000001808    0.000000365   -0.000013837
     13        1          -0.000002208    0.000003691   -0.000003811
     14        1          -0.000010178   -0.000044718    0.000013766
     15        8          -0.000012907   -0.000058910   -0.000030015
     16        6           0.000002767   -0.000011921    0.000008262
     17        1          -0.000005606    0.000006274    0.000003416
     18        1          -0.000006062    0.000003769    0.000004864
     19        6           0.000031997    0.000018941    0.000042167
     20        7           0.000019848   -0.000129655   -0.000020740
     21        1           0.000010097    0.000011812    0.000000911
     22        1           0.000011653    0.000005418    0.000000872
     23        9           0.000010701   -0.000090414   -0.000025340
 -------------------------------------------------------------------
 Cartesian Forces:  Max     0.000179048 RMS     0.000038037

 GradGradGradGradGradGradGradGradGradGradGradGradGradGradGradGradGradGrad
 Berny optimization.
 Using GEDIIS/GDIIS optimizer.
 FormGI is forming the generalized inverse of G from B-inverse, IUseBI=4.
 Internal  Forces:  Max     0.000084484 RMS     0.000018276
 Search for a local minimum.
 Step number   2 out of a maximum of  138
 All quantities printed in internal units (Hartrees-Bohrs-Radians)
 Mixed Optimization -- En-DIIS/RFO-DIIS
 Swapping is turned off.
 Update second derivatives using D2CorX and points    1    2
 DE= -1.05D-06 DEPred=-1.02D-06 R= 1.03D+00
 TightC=F SS=  1.41D+00  RLast= 1.19D-02 DXNew= 5.0454D-01 3.5815D-02
 Trust test= 1.03D+00 RLast= 1.19D-02 DXMaxT set to 3.00D-01
 ITU=  1  0
     Eigenvalues ---    0.00410   0.00438   0.00614   0.00918   0.01407
     Eigenvalues ---    0.02103   0.02406   0.03068   0.03502   0.03706
     Eigenvalues ---    0.03831   0.04416   0.04599   0.04652   0.04742
     Eigenvalues ---    0.04827   0.05193   0.05542   0.05839   0.06068
     Eigenvalues ---    0.07629   0.07899   0.08089   0.08253   0.08548
     Eigenvalues ---    0.08759   0.08914   0.08972   0.09188   0.09647
     Eigenvalues ---    0.09751   0.11557   0.12549   0.12861   0.15540
     Eigenvalues ---    0.17737   0.18493   0.19966   0.24498   0.24865
     Eigenvalues ---    0.25347   0.25853   0.26901   0.27200   0.27639
     Eigenvalues ---    0.28245   0.33109   0.33754   0.33998   0.34040
     Eigenvalues ---    0.34112   0.34169   0.34184   0.34259   0.34316
     Eigenvalues ---    0.34423   0.34456   0.34531   0.34625   0.35468
     Eigenvalues ---    0.41640   0.43236   0.94725
 En-DIIS/RFO-DIIS/Sim-DIIS IScMMF=       -3 using points:     2    1
 RFO step:  Lambda=-6.21505243D-07.
 DidBck=F Rises=F RFO-DIIS coefs:    1.29317   -0.29317
 Iteration  1 RMS(Cart)=  0.00050374 RMS(Int)=  0.00000027
 Iteration  2 RMS(Cart)=  0.00000030 RMS(Int)=  0.00000017
 Variable       Old X    -DE/DX   Delta X   Delta X   Delta X     New X
                                 (Linear)    (Quad)   (Total)
    R1        2.92990  -0.00001  -0.00001   0.00001   0.00000   2.92990
    R2        2.06197  -0.00002  -0.00005  -0.00005  -0.00010   2.06187
    R3        2.06892  -0.00000  -0.00001  -0.00001  -0.00002   2.06890
    R4        2.79164   0.00004  -0.00006   0.00007   0.00000   2.79164
    R5        2.90163  -0.00002   0.00005  -0.00019  -0.00014   2.90149
    R6        2.30796  -0.00001  -0.00011  -0.00001  -0.00012   2.30784
    R7        2.64120   0.00005   0.00001   0.00010   0.00012   2.64132
    R8        2.91083   0.00007   0.00005   0.00016   0.00021   2.91104
    R9        2.06390  -0.00001   0.00015  -0.00003   0.00012   2.06402
   R10        2.66605   0.00008   0.00020   0.00020   0.00041   2.66646
   R11        2.97004  -0.00002  -0.00004   0.00001  -0.00003   2.97001
   R12        2.07039  -0.00000  -0.00002  -0.00001  -0.00003   2.07036
   R13        2.90579   0.00003  -0.00000   0.00006   0.00006   2.90585
   R14        2.93456   0.00001   0.00000   0.00016   0.00016   2.93473
   R15        2.07016   0.00001   0.00000   0.00002   0.00002   2.07018
   R16        2.07495  -0.00001  -0.00005  -0.00004  -0.00010   2.07486
   R17        2.07159  -0.00000   0.00001  -0.00001   0.00001   2.07160
   R18        2.07284   0.00000  -0.00001   0.00001  -0.00000   2.07283
   R19        2.06552  -0.00001  -0.00002  -0.00002  -0.00004   2.06548
   R20        2.06811  -0.00000   0.00002  -0.00001   0.00000   2.06812
   R21        2.94306  -0.00002   0.00004  -0.00003   0.00002   2.94307
   R22        2.78820   0.00000   0.00001   0.00004   0.00005   2.78826
   R23        2.06401  -0.00001  -0.00000  -0.00004  -0.00004   2.06397
   R24        2.06589   0.00001   0.00003   0.00002   0.00005   2.06594
    A1        1.94626  -0.00001  -0.00010  -0.00005  -0.00015   1.94611
    A2        1.93399   0.00000   0.00011   0.00003   0.00014   1.93413
    A3        1.92412  -0.00001  -0.00002  -0.00025  -0.00027   1.92385
    A4        1.88080  -0.00000   0.00004   0.00005   0.00009   1.88089
    A5        1.86754   0.00002  -0.00005   0.00013   0.00008   1.86762
    A6        1.90929   0.00000   0.00002   0.00011   0.00012   1.90941
    A7        2.11197  -0.00006   0.00008  -0.00001   0.00007   2.11204
    A8        1.99170   0.00002  -0.00006   0.00011   0.00006   1.99175
    A9        2.15203   0.00005  -0.00017   0.00052   0.00034   2.15238
   A10        1.84287  -0.00005  -0.00010  -0.00059  -0.00069   1.84218
   A11        1.88645   0.00001  -0.00002   0.00015   0.00013   1.88658
   A12        1.96784   0.00005   0.00005   0.00037   0.00042   1.96826
   A13        1.98090   0.00003   0.00014   0.00036   0.00050   1.98140
   A14        1.92503  -0.00000  -0.00015  -0.00001  -0.00016   1.92487
   A15        1.86281  -0.00003   0.00008  -0.00025  -0.00017   1.86264
   A16        1.93296   0.00003   0.00014   0.00028   0.00042   1.93338
   A17        1.88920  -0.00002   0.00002  -0.00011  -0.00009   1.88910
   A18        1.87710   0.00001  -0.00014  -0.00008  -0.00021   1.87689
   A19        1.88964  -0.00000   0.00003   0.00002   0.00006   1.88969
   A20        1.95222  -0.00003  -0.00005  -0.00014  -0.00019   1.95203
   A21        1.92195   0.00001  -0.00001   0.00003   0.00002   1.92198
   A22        2.03698   0.00001   0.00000   0.00013   0.00013   2.03711
   A23        1.87684  -0.00000  -0.00005  -0.00011  -0.00016   1.87667
   A24        1.91039  -0.00000   0.00005   0.00000   0.00005   1.91044
   A25        1.86766  -0.00000  -0.00009  -0.00009  -0.00017   1.86748
   A26        1.91568  -0.00000   0.00010   0.00002   0.00011   1.91579
   A27        1.84602   0.00000  -0.00002   0.00003   0.00001   1.84603
   A28        2.01429   0.00000   0.00004   0.00014   0.00018   2.01447
   A29        1.90733   0.00001   0.00009   0.00004   0.00012   1.90745
   A30        1.89895   0.00000  -0.00003  -0.00001  -0.00004   1.89891
   A31        1.89746  -0.00001   0.00002  -0.00014  -0.00012   1.89734
   A32        1.89356  -0.00000  -0.00010  -0.00002  -0.00011   1.89344
   A33        1.84476   0.00000  -0.00002  -0.00002  -0.00004   1.84473
   A34        1.91954  -0.00000  -0.00003   0.00002  -0.00000   1.91954
   A35        1.92111  -0.00000   0.00004  -0.00001   0.00003   1.92114
   A36        1.89851   0.00002   0.00001   0.00001   0.00003   1.89854
   A37        1.86870   0.00001   0.00001   0.00006   0.00007   1.86877
   A38        1.90880  -0.00001  -0.00006  -0.00000  -0.00006   1.90874
   A39        1.94710  -0.00001   0.00002  -0.00009  -0.00006   1.94704
   A40        1.98667  -0.00002   0.00002  -0.00006  -0.00004   1.98663
   A41        1.91438  -0.00001   0.00007  -0.00004   0.00003   1.91441
   A42        1.94964   0.00001  -0.00002   0.00001  -0.00001   1.94963
   A43        1.87182   0.00001   0.00009   0.00002   0.00011   1.87194
   A44        1.86957   0.00001  -0.00016   0.00007  -0.00009   1.86948
   A45        1.86622  -0.00000  -0.00001   0.00001   0.00001   1.86623
   A46        1.93883   0.00000  -0.00017  -0.00019  -0.00035   1.93848
   A47        2.00911  -0.00002  -0.00002  -0.00026  -0.00028   2.00883
   A48        2.02592   0.00002   0.00007   0.00033   0.00039   2.02631
    D1       -1.41716  -0.00000   0.00021  -0.00036  -0.00015  -1.41731
    D2        2.72175   0.00000   0.00009  -0.00030  -0.00021   2.72154
    D3        0.71542  -0.00000   0.00008  -0.00029  -0.00021   0.71521
    D4        2.77095   0.00000   0.00015  -0.00041  -0.00026   2.77069
    D5        0.62667   0.00000   0.00003  -0.00035  -0.00032   0.62636
    D6       -1.37966   0.00000   0.00002  -0.00034  -0.00032  -1.37998
    D7        0.65471   0.00000   0.00007  -0.00039  -0.00032   0.65439
    D8       -1.48957   0.00001  -0.00005  -0.00033  -0.00038  -1.48994
    D9        2.78729   0.00000  -0.00006  -0.00032  -0.00038   2.78691
   D10       -1.34805  -0.00000   0.00001   0.00045   0.00046  -1.34760
   D11        0.99961   0.00002  -0.00009   0.00048   0.00040   1.00001
   D12        0.77133  -0.00001  -0.00015   0.00032   0.00017   0.77150
   D13        3.11899   0.00001  -0.00024   0.00036   0.00011   3.11911
   D14        2.80424   0.00000  -0.00013   0.00051   0.00038   2.80462
   D15       -1.13128   0.00002  -0.00022   0.00054   0.00032  -1.13096
   D16        2.24309   0.00003  -0.00118   0.00148   0.00030   2.24339
   D17        0.11775   0.00002  -0.00128   0.00130   0.00002   0.11777
   D18       -1.93704   0.00002  -0.00141   0.00130  -0.00011  -1.93715
   D19       -0.65671  -0.00002  -0.00051  -0.00126  -0.00177  -0.65848
   D20       -2.78205  -0.00004  -0.00060  -0.00144  -0.00205  -2.78409
   D21        1.44635  -0.00003  -0.00073  -0.00144  -0.00217   1.44418
   D22        1.91823   0.00003   0.00033   0.00115   0.00148   1.91971
   D23       -0.42118   0.00003   0.00047   0.00140   0.00187  -0.41931
   D24       -0.97527  -0.00001   0.00098  -0.00158  -0.00060  -0.97587
   D25        2.96851  -0.00000   0.00112  -0.00133  -0.00020   2.96830
   D26       -0.86112   0.00001   0.00036   0.00079   0.00115  -0.85997
   D27       -2.93011   0.00001   0.00023   0.00067   0.00090  -2.92921
   D28        1.27693   0.00001   0.00030   0.00074   0.00104   1.27797
   D29        1.20205   0.00001   0.00035   0.00079   0.00115   1.20320
   D30       -0.86693   0.00001   0.00022   0.00067   0.00089  -0.86604
   D31       -2.94308   0.00000   0.00029   0.00074   0.00103  -2.94205
   D32       -2.99196  -0.00001   0.00045   0.00071   0.00116  -2.99080
   D33        1.22225  -0.00002   0.00031   0.00059   0.00090   1.22315
   D34       -0.85390  -0.00002   0.00038   0.00065   0.00104  -0.85286
   D35        1.61960   0.00001  -0.00018  -0.00017  -0.00035   1.61925
   D36       -2.56641   0.00001  -0.00033  -0.00028  -0.00061  -2.56702
   D37       -0.56889   0.00001  -0.00035  -0.00030  -0.00065  -0.56954
   D38       -2.59487   0.00000  -0.00005  -0.00013  -0.00018  -2.59505
   D39       -0.49769  -0.00000  -0.00020  -0.00024  -0.00044  -0.49814
   D40        1.49983   0.00000  -0.00023  -0.00026  -0.00049   1.49934
   D41       -0.47408  -0.00001  -0.00007  -0.00017  -0.00024  -0.47432
   D42        1.62310  -0.00001  -0.00022  -0.00028  -0.00050   1.62260
   D43       -2.66257  -0.00001  -0.00024  -0.00030  -0.00054  -2.66311
   D44        1.32361  -0.00001  -0.00015  -0.00038  -0.00053   1.32308
   D45       -2.90473  -0.00001  -0.00013  -0.00030  -0.00043  -2.90516
   D46       -0.76652  -0.00001  -0.00007  -0.00040  -0.00047  -0.76698
   D47       -2.83347   0.00001  -0.00009  -0.00017  -0.00026  -2.83373
   D48       -0.77862   0.00002  -0.00008  -0.00009  -0.00017  -0.77879
   D49        1.35959   0.00002  -0.00002  -0.00019  -0.00020   1.35939
   D50       -0.73142  -0.00000  -0.00009  -0.00022  -0.00030  -0.73172
   D51        1.32343   0.00000  -0.00007  -0.00014  -0.00021   1.32322
   D52       -2.82154   0.00000  -0.00001  -0.00024  -0.00025  -2.82179
   D53       -0.99083   0.00000  -0.00000   0.00023   0.00023  -0.99060
   D54        1.15868   0.00000   0.00016   0.00026   0.00042   1.15910
   D55       -3.12629  -0.00000   0.00009   0.00016   0.00025  -3.12604
   D56       -3.09289   0.00000   0.00013   0.00035   0.00049  -3.09240
   D57       -0.94338   0.00001   0.00029   0.00039   0.00067  -0.94271
   D58        1.05484   0.00000   0.00023   0.00028   0.00050   1.05534
   D59        1.19500   0.00000   0.00015   0.00035   0.00050   1.19550
   D60       -2.93868   0.00000   0.00030   0.00039   0.00069  -2.93799
   D61       -0.94046  -0.00000   0.00024   0.00028   0.00052  -0.93993
   D62       -0.28453   0.00001   0.00006   0.00037   0.00043  -0.28410
   D63        1.81247  -0.00000   0.00024   0.00033   0.00057   1.81304
   D64       -2.40468  -0.00000   0.00027   0.00032   0.00059  -2.40409
   D65       -2.38132   0.00000   0.00012   0.00034   0.00045  -2.38087
   D66       -0.28432  -0.00000   0.00030   0.00029   0.00059  -0.28372
   D67        1.78171  -0.00000   0.00033   0.00029   0.00061   1.78233
   D68        1.83790   0.00001   0.00012   0.00032   0.00045   1.83835
   D69       -2.34828  -0.00000   0.00031   0.00028   0.00059  -2.34769
   D70       -0.28225  -0.00000   0.00034   0.00027   0.00061  -0.28164
   D71       -1.35636  -0.00003  -0.00003  -0.00074  -0.00077  -1.35713
   D72        0.95102  -0.00002  -0.00024  -0.00096  -0.00120   0.94983
   D73        2.80601  -0.00001  -0.00020  -0.00066  -0.00086   2.80515
   D74       -1.16979  -0.00000  -0.00041  -0.00088  -0.00129  -1.17108
   D75        0.80770  -0.00002  -0.00016  -0.00072  -0.00088   0.80682
   D76        3.11509  -0.00001  -0.00037  -0.00094  -0.00131   3.11378
         Item               Value     Threshold  Converged?
 Maximum Force            0.000084     0.000450     YES
 RMS     Force            0.000018     0.000300     YES
 Maximum Displacement     0.002886     0.001800     NO 
 RMS     Displacement     0.000504     0.001200     YES
 Predicted change in Energy=-3.108466D-07
 GradGradGradGradGradGradGradGradGradGradGradGradGradGradGradGradGradGrad

                          Input orientation:                          
 ---------------------------------------------------------------------
 Center     Atomic      Atomic             Coordinates (Angstroms)
 Number     Number       Type             X           Y           Z
 ---------------------------------------------------------------------
      1          6           0       -0.058393    1.607018    1.317408
      2          6           0       -1.214191   -0.084232    0.124016
      3          6           0       -0.540107   -0.833669   -1.034182
      4          6           0        0.890504   -0.268125   -1.114936
      5          6           0        0.869361    1.303390   -1.117720
      6          6           0        1.003763    2.005929    0.260741
      7          1           0       -0.993919    2.148339    1.168238
      8          1           0        0.297384    1.827300    2.329098
      9          1           0        1.340737   -0.607250   -2.054403
     10          1           0        1.708964    1.643509   -1.733747
     11          1           0       -0.036880    1.656117   -1.627466
     12          1           0        2.004893    1.807047    0.660652
     13          1           0        0.956794    3.090602    0.104350
     14          1           0       -1.128711   -0.661316   -1.937958
     15          8           0       -2.296472    0.461600   -0.024965
     16          6           0        1.678148   -0.827586    0.081377
[...]
 -0.01193610,0.01452948,-0.04708167,0.02360441,-0.00460946,0.00501274,-
 0.00933848,0.00001346,0.00125172,-0.00035599,0.,0.00014671,0.00017360,
 0.00001428,0.00001010,0.00000960,-0.00007013,-0.00022318,0.00001808,0.
 00033670,0.00025577,0.00045769,0.00012045,0.00005008,0.00003255,0.0002
 3165,-0.00031320,0.00012547,0.00000857,0.00003306,0.00007467,0.0000008
 1,-0.00000349,0.00000417,-0.02243633,0.06915700,0.00015434,0.00094582,
 -0.00127434,-0.01811954,0.00361260,-0.02209319,-0.11940525,0.02927567,
 -0.24183973,0.00405660,-0.00055460,0.00524162,-0.00033988,-0.00033549,
 0.00018272,0.00015134,-0.00005516,-0.00002702,0.00001770,-0.00008828,0
 .00002460,-0.00015726,-0.00049815,0.00001748,-0.00055380,-0.00027502,0
 .00089975,0.00008280,-0.00012992,0.00006948,-0.00008022,-0.00045679,-0
 .00002151,0.00000659,0.00001030,0.00009361,-0.00004467,-0.00000467,0.0
 0003045,0.12978630,-0.03521918,0.25331297,-0.00398006,0.01221549,0.006
 96723,-0.55868088,0.25453254,-0.04834530,-0.02688318,0.02084661,0.0032
 2245,0.00057992,0.00061449,0.00228502,-0.00089346,0.00080401,-0.000573
 36,0.00074281,-0.00358927,-0.00085819,-0.00058977,-0.00183017,-0.00085
 396,0.00030324,-0.00074921,0.00018063,-0.00085285,-0.00053640,0.000629
 58,0.00029296,-0.00001860,0.00020965,-0.00006418,-0.00046937,0.0006919
 3,-0.00002282,0.00022381,0.00012082,-0.00102358,-0.00068438,0.00083209
 ,0.00111144,-0.00030125,0.00110290,0.64534899,0.00370853,-0.00927235,-
 0.00650334,0.25031503,-0.20649621,-0.00030743,0.03675661,0.00362252,-0
 .00301301,0.00087090,-0.00518183,-0.00717707,0.00011681,-0.00235692,0.
 00232940,-0.00028931,0.00438166,-0.00001536,-0.00243043,0.00278645,-0.
 00033026,-0.00098882,0.00122727,0.00007080,0.00270534,0.00112748,0.000
 03976,-0.00066031,0.00058262,-0.00027007,-0.00079326,0.00075249,-0.001
 00705,-0.00044957,-0.00022086,0.00022144,0.00102139,0.00071834,-0.0004
 7400,-0.00050460,-0.00039221,0.00013767,-0.29770769,0.18761214,-0.0025
 0746,0.00360253,0.00259828,-0.05314451,0.01304188,-0.09570356,0.017758
 04,-0.01359711,0.01319404,0.00042866,-0.00061121,-0.00129470,0.0002313
 6,0.00041451,-0.00172348,-0.00064670,-0.00140394,-0.00101051,-0.001040
 69,0.00046775,-0.00115859,-0.00030377,0.00007621,0.00007421,0.00071167
 ,0.00024510,-0.00000682,0.00044669,0.00019554,0.00051270,0.00058884,-0
 .00054156,0.00063670,-0.00018613,0.00005228,0.00040946,-0.00052075,-0.
 00033597,0.00057526,-0.00044609,0.00018511,0.00425504,0.08791734,-0.01
 003774,0.09314377,-0.00113575,-0.00089786,0.00052065,0.00194661,0.0004
 5721,0.00223697,-0.02813824,0.00846893,-0.02952482,-0.10339709,0.01706
 640,-0.03685685,-0.00211599,0.00653723,-0.00021491,0.00158991,0.001267
 91,0.00001223,0.00000951,-0.00002968,0.00012049,0.00001716,0.00055770,
 -0.00006106,0.00863805,-0.00532350,0.01085015,0.00054255,-0.00080391,0
 .00028878,0.00018936,-0.00040868,-0.00017251,-0.00056658,-0.00048371,-
 0.00065466,-0.00029695,0.00000523,-0.00047545,-0.00450544,-0.00228393,
 0.00151696,0.00036201,0.00039274,-0.00094921,0.54704348,0.00209072,0.0
 0121655,-0.00157061,-0.00117528,0.00002827,-0.00267103,-0.00611954,0.0
 0633723,-0.01084023,0.01697974,-0.08722585,0.02662197,0.02113548,-0.01
 640604,0.02378461,-0.00071130,-0.00036578,0.00028220,-0.00031263,-0.00
 038863,0.00030421,0.00001617,-0.00000203,-0.00013265,-0.00454671,0.002
 46968,-0.00573599,-0.00022936,-0.00006715,0.00020223,-0.00059724,-0.00
 609795,0.00074752,0.00090679,-0.00212941,0.00008874,0.00055948,0.00067
 433,0.00061275,-0.00339450,-0.00137184,0.00067107,0.00067707,-0.000302
 94,0.00115558,0.02364625,0.59601239,-0.00073899,0.00024709,0.00044505,
 0.00078460,-0.00228633,-0.00000957,-0.01223157,-0.00322452,0.00108257,
 -0.03514297,0.02758473,-0.13424203,-0.00142655,0.00459783,0.00046956,0
 .00050791,-0.00187461,0.00101725,0.00000675,0.00019392,0.00000581,0.00
 003805,0.00012628,-0.00018140,-0.01616927,0.01157045,-0.02048664,0.000
 19608,-0.00093007,0.00010785,0.00066807,-0.00177052,0.00064437,0.00029
 088,-0.00019901,0.00015944,0.00012975,-0.00033714,-0.00035055,0.001385
 70,0.00063916,0.00092659,-0.00169695,0.00133329,-0.00075151,0.01709949
 ,0.02919928,0.40708316,-0.00049137,-0.00070793,0.00023241,0.00136089,0
 .00039529,0.00140693,0.00020961,0.00265328,0.00026005,-0.00403602,0.01
 526493,0.00280605,-0.00156023,-0.00004854,-0.00213283,-0.00040268,-0.0
 0090114,-0.00023402,0.00009202,0.00015959,-0.00008878,0.00003222,0.000
 07437,0.00004528,0.00094380,-0.00046877,0.00021400,-0.00001679,0.00023
 212,-0.00018794,0.00018757,0.00078098,-0.00012946,0.00052336,0.0000650
 4,0.00028682,0.00025465,-0.00003114,0.00012134,0.00007007,-0.00023756,
 -0.00005841,-0.00065051,0.00021360,-0.00060984,-0.06243705,0.05660193,
 0.00966997,0.06686923,-0.00021650,0.00002153,0.00010291,-0.00052629,-0
 .00019338,-0.00028108,-0.00041710,-0.00150988,0.00029300,0.00212404,-0
 .01010335,-0.00140947,0.00164565,0.00038379,0.00145169,-0.00029918,0.0
 0027264,0.00024939,0.00003534,0.00008276,-0.00004916,0.00000811,0.0000
 0550,-0.00004953,-0.00022262,0.00073966,0.00032504,-0.00008488,-0.0000
 8054,0.00003440,-0.00009376,-0.00068803,0.00007582,0.00024424,0.000077
 47,0.00022684,0.00014399,-0.00003987,0.00000227,0.00008330,0.00004169,
 -0.00004300,0.00021425,-0.00000097,0.00008741,0.06033047,-0.29488084,-
 0.04409930,-0.06327713,0.31713054,0.00078457,0.00072997,-0.00026003,-0
 .00107996,-0.00003855,-0.00147230,0.00079360,0.00077434,0.00029732,-0.
 00559969,0.02717434,0.00337110,-0.00421097,0.00099057,-0.00357561,-0.0
 0057521,-0.00054960,-0.00055306,-0.00003954,-0.00022450,0.00004525,-0.
 00008418,-0.00006016,0.00005724,0.00065428,0.00020672,0.00097575,0.000
 08902,0.00001852,-0.00001773,-0.00007062,0.00177103,-0.00023392,0.0002
 6564,-0.00021751,0.00018620,0.00011848,0.00001539,0.00011909,0.0000538
 6,0.00005089,-0.00003898,0.00067893,-0.00035739,0.00053810,0.01015647,
 -0.04563478,-0.05330196,-0.01292900,0.04531633,0.06211650,-0.00041069,
 -0.00090482,0.00021839,0.00116802,-0.00067556,-0.00023142,-0.00065741,
 0.00175352,-0.00308048,-0.01456429,-0.00701740,-0.00222663,0.00073135,
 -0.00111549,-0.00011428,-0.00076867,-0.00026049,-0.00037244,0.00014576
 ,0.00015308,-0.00012323,0.00002800,0.00012680,0.00001600,0.00001980,0.
 00010936,-0.00040674,-0.00007811,0.00058027,-0.00024432,0.00023910,-0.
 00010482,0.00009421,0.00095393,0.00070495,0.00068998,0.00054563,-0.000
 13287,0.00017898,-0.00092890,-0.00044711,0.00031613,-0.00057720,0.0005
 9941,-0.00001208,-0.23704839,-0.11389422,-0.02598538,0.00743186,0.0032
 8350,0.00112639,0.25539380,0.00008610,0.00032144,-0.00026949,-0.000138
 72,0.00023287,0.00050724,0.00206622,-0.00242439,0.00251309,0.01236204,
 0.00625723,0.00158202,0.00048874,0.00026213,-0.00045696,0.00094213,-0.
 00131901,-0.00002182,0.00000590,-0.00000256,0.00005469,-0.00000302,-0.
 00005728,0.00004187,-0.00041203,0.00007782,-0.00030106,-0.00017128,0.0
 0016389,0.00007533,-0.00014572,0.00025027,-0.00015171,0.00084574,-0.00
 162510,-0.00039649,-0.00009608,-0.00000789,0.00014342,0.00078636,0.000
 45172,-0.00010568,-0.00002033,-0.00012828,-0.00004364,-0.11621842,-0.1
 1842413,-0.01714901,-0.02706504,-0.01516533,-0.00427488,0.12436722,0.1
 2836894,0.00041087,0.00018066,-0.00001000,-0.00055303,-0.00053864,-0.0
 0174053,-0.00166284,0.00240022,-0.00528528,-0.02372124,-0.01313277,-0.
 00275867,0.00016406,-0.00109619,0.00130668,0.00063157,0.00011767,0.000
 46131,-0.00003058,-0.00008871,-0.00002159,0.00002886,-0.00004699,-0.00
 003722,0.00047771,-0.00031274,0.00013245,0.00016167,0.00022868,-0.0002
 5106,0.00017561,-0.00025545,-0.00011502,-0.00009296,-0.00014766,0.0003
 7092,-0.00005232,-0.00007054,0.00007177,-0.00141017,-0.00072881,0.0003
 5365,0.00050215,0.00004543,0.00067586,-0.02687035,-0.01705142,-0.04898
 318,-0.00454717,-0.00265342,-0.00074848,0.02959572,0.01756092,0.057359
 11,0.00759114,0.00123253,0.00183155,-0.03023303,0.00841346,-0.00904632
 ,0.00091139,-0.00101017,-0.00025503,0.01325035,-0.00183086,-0.00622992
 ,-0.00114526,-0.00069139,-0.00109649,0.00263892,-0.00095661,0.00002798
 ,0.00049078,-0.00336682,-0.00048676,0.00006138,-0.00232577,0.00000416,
 -0.00276137,0.00190106,-0.00372894,-0.00002807,0.00006563,0.00027303,-
 0.00003043,0.00070392,-0.00026652,-0.00086630,-0.00003485,0.00005178,-
 0.00096797,-0.00023699,0.00047044,-0.00048918,0.00015334,0.00104220,0.
 00269391,-0.00043013,-0.00219303,-0.09902987,0.00015474,0.03194634,-0.
 00523957,-0.00159998,0.00733382,-0.01172408,0.00329724,0.02232077,0.46
 556085,0.02798928,-0.02760153,0.00420046,0.00380758,0.00792563,0.01376
 649,-0.00079486,0.00345018,-0.00310717,-0.00960479,0.00024176,0.006447
 49,0.00025689,0.00048437,0.00141562,-0.00020209,0.00076074,0.00012533,
 -0.00150958,-0.00491599,-0.00025175,0.00066368,0.00184241,0.00034178,0
 .00182566,-0.00026271,0.00119903,0.00005767,0.00029277,-0.00030897,0.0
 0012933,-0.00040829,-0.00012226,-0.00031936,-0.00023572,0.00040271,0.0
 0055481,0.00075673,-0.00062845,0.00025637,-0.00041929,-0.00045832,-0.0
 0647518,0.00204848,-0.00702504,-0.00422545,-0.07877625,0.00285346,0.01
 683196,0.00022170,-0.02371152,-0.00946906,0.00035510,0.01567012,0.0843
 4938,0.57417014,0.00608341,0.00358028,-0.00116090,-0.02339128,0.024230
 64,-0.00120402,0.00096372,-0.00196155,-0.00263933,0.01051568,-0.001983
 18,-0.03536864,0.00048254,0.00003589,0.00010352,-0.00125931,0.00120656
 ,0.00067029,-0.00115836,-0.00169786,-0.00010801,0.00073345,-0.00164145
 ,-0.00024988,-0.00253271,0.00247751,-0.00272636,-0.00006836,-0.0002796
 3,0.00016263,0.00001622,-0.00053964,0.00014715,-0.00044157,-0.00015425
 ,0.00061552,0.00020274,-0.00020384,-0.00011363,0.00050333,0.00058380,0
 .00047537,-0.00306348,-0.00554090,-0.00187020,0.03488728,0.00164972,-0
 .12969957,0.00273963,0.00072114,-0.00439428,-0.00210965,0.00097855,0.0
 0063909,0.07840676,0.00755348,0.53166562,-0.09509697,-0.00237003,-0.01
 556599,-0.12757538,-0.00720550,-0.10090014,0.00579996,0.00356782,0.000
 60014,-0.00086041,0.00002897,-0.00417783,0.00162888,0.00065235,-0.0022
 9436,-0.00440912,-0.03327263,0.00143756,0.00808328,0.02818568,0.001028
 83,-0.00451401,-0.01916553,-0.00246517,0.00043496,0.00069163,-0.000472
 58,0.00006628,-0.00016139,-0.00038059,0.00025557,-0.00044861,0.0006726
 1,0.00041483,0.00010888,-0.00062037,-0.00473234,-0.00223669,0.00376656
 ,-0.00010371,0.00091832,0.00182842,-0.05289078,0.00895219,-0.04852220,
 -0.02407865,0.01723241,0.00880525,-0.00310432,0.00015086,0.00224156,-0
 .00106254,0.00046038,0.00119163,-0.13772653,0.03842883,-0.01280673,0.4
 5665271,-0.02932040,-0.16968130,-0.00059247,0.00519242,-0.11800674,-0.
 05713842,-0.01500231,0.01095986,-0.02355175,0.00221334,-0.00046389,0.0
 0149980,0.00078613,0.00066239,-0.00362178,-0.01098721,-0.03195001,0.00
 605465,-0.00393719,-0.02678964,-0.00233293,-0.00317502,-0.01784749,-0.
 00229809,0.00060560,0.00099064,0.00049905,0.00030657,0.00026210,-0.000
 23054,0.00005323,0.00015335,0.00040420,-0.00078931,0.00035150,-0.00050
 110,-0.00474117,-0.00100930,0.00318678,0.00298057,-0.00176731,-0.00408
 159,0.01349140,0.02123242,0.01949912,0.01010833,-0.00413482,-0.0070263
 2,0.00099202,0.00099225,-0.00078438,0.00107941,-0.00035925,-0.00017123
 ,0.05480858,-0.13122280,-0.00951641,-0.05351958,0.48508523,-0.03385057
 ,-0.01240776,-0.04656554,-0.04001727,-0.05778195,-0.16516035,-0.016902
 72,-0.01368738,-0.01819672,-0.00284196,-0.00255835,-0.00119223,-0.0002
 9216,-0.00029454,0.00023737,0.00612080,0.01335586,0.00118329,0.0017241
 0,0.00472827,-0.00082600,-0.00685822,-0.02922553,0.00202049,0.00169237
 ,-0.00027525,0.00122599,0.00031891,0.00079897,0.00094191,-0.00011624,-
 0.00041764,0.00077218,0.00075275,0.00037568,0.00000466,0.00152694,0.00
 069282,-0.00036206,0.00154766,-0.00127882,-0.00242924,-0.05218762,0.03
 015181,-0.01018943,0.01702542,-0.01662179,0.00291250,0.00242517,0.0002
 0197,-0.00269511,0.00087609,-0.00045123,0.00006602,-0.02637783,-0.0017
 3574,-0.07615795,0.17099834,0.07229551,0.32016190,-0.00389448,0.001558
 16,-0.00260151,0.00257211,0.00174510,0.00063951,-0.00002402,-0.0001363
 9,-0.00021931,-0.00122416,0.00004165,0.00000798,0.00016566,0.00012353,
 0.00009366,-0.00031302,0.00017026,0.00002577,0.00019514,0.00137951,0.0
 0014320,0.00005581,-0.00015999,0.00030743,0.00018742,-0.00006039,0.000
 17218,0.00000377,0.00003574,-0.00007976,0.00003521,-0.00008514,0.00004
 780,0.00022802,0.00012518,0.00001142,0.00024666,-0.00001704,-0.0000710
 8,0.00007298,0.00001084,-0.00004896,-0.00099512,-0.00013734,0.00009916
 ,-0.00785978,-0.01305895,0.00561293,0.00042568,-0.00029302,0.00042644,
 -0.00101190,-0.00020142,0.00288506,-0.08564084,-0.09997814,0.01916532,
 0.00414995,0.03423729,-0.00498862,0.09839591,0.00381727,-0.00062355,0.
 00172585,-0.00183681,-0.00034193,-0.00175683,0.00000581,-0.00099153,0.
 00057236,0.00031271,0.00023446,-0.00020833,-0.00009112,-0.00000845,-0.
 00011482,0.00010983,0.00036879,-0.00024567,-0.00022703,-0.00103454,0.0
 0009158,-0.00008639,0.00021159,0.00008271,-0.00005678,0.00001950,-0.00
 000226,-0.00002586,0.00002058,0.00006833,0.00000104,0.00006745,-0.0000
 1270,-0.00001401,-0.00000002,-0.00000198,-0.00002968,0.00000340,0.0000
 2740,-0.00000772,-0.00001025,-0.00001471,0.00119879,-0.00024043,0.0004
 1754,0.00036877,0.00276286,-0.00218924,0.00039803,0.00160295,-0.000428
 40,0.00082638,0.00093205,-0.00006365,-0.09149359,-0.26545376,0.0541120
 8,0.00046779,-0.02283778,0.00286538,0.09063632,0.29239154,-0.00068445,
 -0.00090231,-0.00018292,0.00015944,0.00093463,0.00015067,-0.00047890,0
 .00202927,-0.00084033,0.00168561,-0.00058239,-0.00047612,-0.00003903,-
 0.00024555,0.00028721,0.00006015,-0.00024617,-0.00008765,0.00009981,0.
 00005767,0.00030516,0.00013714,0.00010009,0.00036963,-0.00042406,0.000
 03552,-0.00039038,-0.00000287,-0.00010945,0.00004295,-0.00005055,0.000
 06546,0.00003376,0.00011449,-0.00004603,-0.00009219,-0.00002176,0.0000
 2727,0.00001595,-0.00006511,-0.00023198,0.00010943,-0.00024206,0.00004
 590,-0.00012439,0.01332614,0.02264861,-0.00721019,-0.00015321,0.000165
 57,0.00144182,0.00192863,0.00019126,-0.00348971,0.01875459,0.05142252,
 -0.06251203,-0.00053369,0.00486541,0.00019270,-0.02512509,-0.05495924,
 0.06525559,0.00089759,-0.00251221,-0.00073240,-0.00095757,0.00490847,0
 .00307483,-0.00049075,-0.00022163,0.00039587,-0.00188504,0.00089771,0.
 00252285,-0.00005932,0.00017423,0.00003548,0.00034439,0.00036033,0.000
 03881,-0.00003934,-0.00025039,0.00037147,0.00027721,0.00081679,0.00049
 234,0.00056864,-0.00041476,0.00080077,0.00002764,0.00001782,0.00000931
 ,0.00001019,-0.00010673,0.00003219,-0.00004236,0.00004363,-0.00008686,
 0.00005161,0.00000491,-0.00012115,0.00009505,0.00002295,-0.00010569,-0
 .00199816,-0.00021780,-0.00180255,0.00993824,0.00396097,0.01606135,-0.
 00043348,0.00066982,0.00049405,0.00142807,0.00005025,0.00004427,-0.116
 07085,-0.04322627,-0.10695628,-0.02217589,-0.00590644,-0.02388195,-0.0
 0536835,-0.00382520,-0.00852506,0.13574620,0.00085921,0.00156303,0.002
 06912,0.00170570,-0.00401511,-0.00113584,0.00029299,-0.00104213,0.0004
 1324,0.00019643,-0.00021978,0.00082716,0.00003403,0.00003844,-0.000057
 68,0.00011269,-0.00016357,0.00018772,-0.00006406,0.00029006,0.00000267
 ,0.00003605,0.00006590,-0.00051534,-0.00001564,-0.00000762,0.00012089,
 -0.00001094,0.00001063,-0.00003311,-0.00001465,0.00003429,-0.00005557,
 -0.00019162,-0.00004562,0.00007040,-0.00010369,-0.00003782,-0.00006001
 ,-0.00004762,0.00009829,-0.00002096,0.00203557,0.00045414,0.00135673,-
 0.00042207,0.00104414,0.00164634,0.00015989,-0.00001479,-0.00001640,0.
 00045717,0.00089635,-0.00009476,-0.05127093,-0.08038010,-0.07446415,0.
 01754694,0.00493498,0.02008685,-0.01577224,-0.00756243,-0.02379788,0.0
 4488112,0.08358038,0.00041399,-0.00089348,0.00060501,0.00112747,0.0003
 3222,0.00119893,0.00076099,0.00020632,0.00070671,0.00299211,-0.0013597
 2,-0.00263068,0.00000390,-0.00044747,-0.00009917,-0.00041955,0.0000897
 8,-0.00038549,0.00011960,-0.00004492,0.00032437,-0.00003979,0.00063470
 ,0.00029956,-0.00065402,0.00072715,-0.00106168,0.00001564,0.00005999,0
 .00003134,0.00000186,0.00015311,0.00008263,0.00041596,0.00024728,-0.00
 016504,0.00017084,0.00000261,0.00015853,-0.00004275,-0.00001036,0.0000
 0993,-0.00057215,0.00030523,-0.00019338,-0.01156246,-0.00749451,-0.018
 44748,0.00075850,-0.00000594,-0.00173335,-0.00022893,0.00044086,0.0016
 5144,-0.11127557,-0.06852141,-0.21373391,-0.00447051,-0.00017179,-0.00
 300552,0.00426908,0.00145245,0.00673092,0.11824024,0.07450638,0.229503
 73,-0.00022658,-0.00073990,0.00004992,0.00054798,0.01506992,-0.0107882
 4,-0.05813003,0.01477913,-0.00516116,0.00475082,-0.03597850,0.00260794
 ,-0.00681445,-0.00032400,0.00091481,-0.00000721,-0.00067954,0.00048847
 ,0.00001226,-0.00008433,-0.00001097,0.00015253,0.00021450,-0.00004184,
 0.00228384,0.00114864,-0.00000553,0.00000949,-0.00203867,-0.00016963,0
 .00008638,-0.00005922,0.00006909,0.00009460,0.00001429,-0.00000220,0.0
 0010811,-0.00014339,-0.00045953,0.00424827,0.01952756,-0.00114857,-0.0
 0133273,-0.00104330,0.00470323,0.00033290,0.00007796,0.00018854,-0.000
 02896,-0.00190312,-0.00062794,0.00074688,-0.00128626,0.00035072,-0.001
 24537,0.00065334,-0.00091234,0.00084424,0.00052376,0.00330662,-0.00040
 267,-0.00044855,0.00007985,0.00013627,-0.00040431,-0.00002446,0.053833
 42,-0.00107703,0.00050429,0.00085666,0.00062772,-0.02862301,0.01381688
 ,0.00912378,-0.21158572,0.02862957,-0.00196132,-0.03601051,0.00251937,
 -0.00719736,0.00271365,0.00176186,0.00031926,-0.00082459,0.00051661,0.
 00008747,0.00024637,0.00005692,-0.00012619,-0.00018768,-0.00044040,-0.
 00041901,0.00102374,0.00121520,-0.00017570,-0.00265588,-0.00033820,0.0
 0041272,0.00126201,-0.00029898,-0.00028539,-0.00009374,-0.00034443,-0.
 00019968,-0.00030002,-0.00040334,0.00156998,-0.02934373,0.00768841,0.0
 0552778,-0.00195300,-0.00720109,0.00189004,0.00002821,0.00109423,-0.00
 208580,0.00110450,-0.00075003,-0.00001923,0.00094341,0.00024928,0.0001
 6821,-0.00287356,0.00085324,0.00098691,0.00044561,-0.00881712,-0.00016
 352,0.00048950,-0.00146817,-0.00012759,0.00047835,-0.00020849,-0.00687
 602,0.30521178,0.00043937,0.00060023,0.00121408,-0.00285885,-0.0208136
 9,0.01605153,-0.00341245,0.01800978,-0.06711673,-0.00184812,0.00733446
 ,0.00324140,0.00120438,-0.00007871,0.00111372,0.00025662,0.00016011,-0
 .00065131,-0.00003823,-0.00013386,-0.00002651,-0.00008707,0.00015598,-
 0.00000021,-0.00177830,-0.00060332,0.00021068,0.00017943,0.00033648,0.
 00020244,0.00013049,-0.00057887,0.00007446,0.00010967,0.00010308,0.000
 15244,-0.00003429,-0.00002196,0.00031736,0.00063319,0.03377828,0.00172
 131,0.00305236,0.00035288,-0.00258685,-0.00069873,-0.00021548,-0.00119
 007,0.00010450,-0.00066286,-0.00012356,0.00009505,-0.00046726,0.000352
 44,-0.00150699,0.00047212,-0.00254046,0.00063927,0.00371428,-0.0029388
 7,-0.00077263,-0.00141785,0.00047014,-0.00040189,-0.00103580,0.0001526
 0,0.00659320,-0.03898799,0.05189997\\-0.00001312,-0.00002298,0.0000064
 2,-0.00000913,0.00021900,-0.00010166,0.00005165,-0.00005615,0.00001445
 ,-0.00002278,0.00000236,0.00000998,-0.00002387,0.00001920,0.00000702,-
 0.00000491,-0.00003156,-0.00000864,0.00001481,-0.00001455,-0.00000713,
 -0.00000916,-0.00000251,0.00000476,-0.00001264,-0.00000639,0.00000495,
 0.00000037,0.00000355,0.00000054,0.00001787,-0.00000496,0.00000270,0.0
 0000572,0.00000452,0.00000473,-0.00000494,-0.00000656,0.00000743,-0.00
 004005,0.00003686,-0.00004562,0.00002462,-0.00007771,0.00004365,-0.000
 00017,0.00001072,-0.00001395,-0.00000413,-0.00000037,0.00000183,0.0000
 0777,-0.00000535,0.00000383,-0.00002253,-0.00002484,-0.00002393,0.0000
 1615,0.00002257,0.00005441,0.00000192,-0.00000278,0.00000243,0.0000008
 6,-0.00000048,0.00001430,0.00002570,-0.00006158,0.00001753\\\@


 A MATHEMATICIAN IS A MACHINE FOR TURNING COFFEE INTO THEOREMS.
     -- QUOTED BY PAUL ERDOS
 Job cpu time:       0 days  0 hours 52 minutes 34.9 seconds.
 Elapsed time:       0 days  0 hours 52 minutes 34.6 seconds.
 File lengths (MBytes):  RWF=    169 Int=      0 D2E=      0 Chk=      7 Scr=      1
 Normal termination of Gaussian 16 at Mon Apr 15 22:28:53 2019.
