 Entering Gaussian System, Link 0=g16
 Input=P2.com
 Output=P2.log
 Initial command:
 /opt/g16/l1.exe "/scratch/Grace/g03/Gau-75713.inp" -scrdir="/scratch/Grace/g03/"
 Entering Link 1 = /opt/g16/l1.exe PID=     75714.
  
 Copyright (c) 1988,1990,1992,1993,1995,1998,2003,2009,2016,
            Gaussian, Inc.  All Rights Reserved.
  
 This is part of the Gaussian(R) 16 program.  It is based on
 the Gaussian(R) 09 system (copyright 2009, Gaussian, Inc.),
 the Gaussian(R) 03 system (copyright 2003, Gaussian, Inc.),
 the Gaussian(R) 98 system (copyright 1998, Gaussian, Inc.),
 the Gaussian(R) 94 system (copyright 1995, Gaussian, Inc.),
 the Gaussian 92(TM) system (copyright 1992, Gaussian, Inc.),
 the Gaussian 90(TM) system (copyright 1990, Gaussian, Inc.),
 the Gaussian 88(TM) system (copyright 1988, Gaussian, Inc.),
 the Gaussian 86(TM) system (copyright 1986, Carnegie Mellon
 University), and the Gaussian 82(TM) system (copyright 1983,
 Carnegie Mellon University). Gaussian is a federally registered
 trademark of Gaussian, Inc.
  
 This software contains proprietary and confidential information,
 including trade secrets, belonging to Gaussian, Inc.
  
 This software is provided under written license and may be
 used, copied, transmitted, or stored only in accord with that
 written license.
  
 The following legend is applicable only to US Government
 contracts under FAR:
  
                    RESTRICTED RIGHTS LEGEND
  
 Use, reproduction and disclosure by the US Government is
 subject to restrictions as set forth in subparagraphs (a)
 and (c) of the Commercial Computer Software - Restricted
 Rights clause in FAR 52.227-19.
  
 Gaussian, Inc.
 340 Quinnipiac St., Bldg. 40, Wallingford CT 06492
  
  
 ---------------------------------------------------------------
 Warning -- This program may not be used in any manner that
 competes with the business of Gaussian, Inc. or will provide
 assistance to any competitor of Gaussian, Inc.  The licensee
 of this program is prohibited from giving any competitor of
 Gaussian, Inc. access to this program.  By using this program,
 the user acknowledges that Gaussian, Inc. is engaged in the
 business of creating and licensing software in the field of
 computational chemistry and represents and warrants to the
 licensee that it is not a competitor of Gaussian, Inc. and that
 it will not use this program in any manner prohibited above.
 ---------------------------------------------------------------
  

 Cite this work as:
 Gaussian 16, Revision A.03,
 M. J. Frisch, G. W. Trucks, H. B. Schlegel, G. E. Scuseria, 
 M. A. Robb, J. R. Cheeseman, G. Scalmani, V. Barone, 
 G. A. Petersson, H. Nakatsuji, X. Li, M. Caricato, A. V. Marenich, 
 J. Bloino, B. G. Janesko, R. Gomperts, B. Mennucci, H. P. Hratchian, 
 J. V. Ortiz, A. F. Izmaylov, J. L. Sonnenberg, D. Williams-Young, 
 F. Ding, F. Lipparini, F. Egidi, J. Goings, B. Peng, A. Petrone, 
 T. Henderson, D. Ranasinghe, V. G. Zakrzewski, J. Gao, N. Rega, 
 G. Zheng, W. Liang, M. Hada, M. Ehara, K. Toyota, R. Fukuda, 
 J. Hasegawa, M. Ishida, T. Nakajima, Y. Honda, O. Kitao, H. Nakai, 
 T. Vreven, K. Throssell, J. A. Montgomery, Jr., J. E. Peralta, 
 F. Ogliaro, M. J. Bearpark, J. J. Heyd, E. N. Brothers, K. N. Kudin, 
 V. N. Staroverov, T. A. Keith, R. Kobayashi, J. Normand, 
 K. Raghavachari, A. P. Rendell, J. C. Burant, S. S. Iyengar, 
 J. Tomasi, M. Cossi, J. M. Millam, M. Klene, C. Adamo, R. Cammi, 
 J. W. Ochterski, R. L. Martin, K. Morokuma, O. Farkas, 
 J. B. Foresman, and D. J. Fox, Gaussian, Inc., Wallingford CT, 2016.
 
 ******************************************
 Gaussian 16:  ES64L-G16RevA.03 25-Dec-2016
                15-Apr-2019 
 ******************************************
 ------------------------------------------
 #B3LYP/6-31+G(d,p) OPT Freq=hpmodes Nosymm
 ------------------------------------------
 1/18=20,19=15,26=3,38=1/1,3;
 2/9=110,12=2,15=1,17=6,18=5,40=1/2;
 3/5=1,6=6,7=111,11=2,25=1,30=1,71=1,74=-5/1,2,3;
 4//1;
 5/5=2,38=5/2;
 6/7=2,8=2,9=2,10=2,28=1/1;
 7/30=1/1,2,3,16;
 1/18=20,19=15,26=3/3(2);
 2/9=110,15=1/2;
 99//99;
 2/9=110,15=1/2;
 3/5=1,6=6,7=111,11=2,25=1,30=1,71=1,74=-5/1,2,3;
 4/5=5,16=3,69=1/1;
 5/5=2,38=5/2;
 7/30=1/1,2,3,16;
 1/18=20,19=15,26=3/3(-5);
 2/9=110,15=1/2;
 6/7=2,8=2,9=2,10=2,19=2,28=1/1;
 99/9=1/99;
 ----------------------------------------------------------------------
 initial structure is the last point of TS2_F.log (/TS2_IRC/CalcFC_LQA_
 Reverse_2.log)
 ----------------------------------------------------------------------
 Symbolic Z-matrix:
 Charge =  0 Multiplicity = 1
 C                    -0.41411   1.86808   1.07237 
 C                    -1.23239   0.64213   0.68938 
 C                    -0.3471   -0.94213  -0.80078 
 C                     1.03519  -0.33964  -1.08632 
 C                     0.94348   1.21695  -1.14669 
 C                     0.87214   2.00701   0.19194 
 H                    -1.08287   2.7187    0.92845 
 H                    -0.14341   1.85694   2.13385 
 H                     1.44246  -0.71373  -2.03093 
 H                     1.84392   1.57222  -1.66178 
 H                     0.09897   1.50356  -1.78868 
 H                     1.75615   1.76034   0.7889 
 H                     0.98049   3.06742  -0.05981 
 H                    -1.17118  -0.57736  -1.41307 
 O                    -2.38376   0.73939   0.30115 
 C                     1.82541  -0.8393    0.14023 
 H                     2.18259  -1.85817  -0.02768 
 H                     2.69457  -0.21558   0.36767 
 C                     0.75551  -0.81444   1.27312 
 N                    -0.54988  -0.59783   0.59689 
 H                     0.7072   -1.77235   1.79719 
 H                     0.93326  -0.04257   2.02279 
 F                    -0.30275  -2.33681  -0.96004 
 

 GradGradGradGradGradGradGradGradGradGradGradGradGradGradGradGradGradGrad
 Berny optimization.
 Initialization pass.
                           ----------------------------
                           !    Initial Parameters    !
                           ! (Angstroms and Degrees)  !
 --------------------------                            --------------------------
 ! Name  Definition              Value          Derivative Info.                !
 --------------------------------------------------------------------------------
 ! R1    R(1,2)                  1.5229         estimate D2E/DX2                !
 ! R2    R(1,6)                  1.5649         estimate D2E/DX2                !
 ! R3    R(1,7)                  1.0916         estimate D2E/DX2                !
 ! R4    R(1,8)                  1.0955         estimate D2E/DX2                !
 ! R5    R(2,15)                 1.219          estimate D2E/DX2                !
 ! R6    R(2,20)                 1.4184         estimate D2E/DX2                !
 ! R7    R(3,4)                  1.5347         estimate D2E/DX2                !
 ! R8    R(3,14)                 1.0895         estimate D2E/DX2                !
 ! R9    R(3,20)                 1.4537         estimate D2E/DX2                !
 ! R10   R(3,23)                 1.4044         estimate D2E/DX2                !
 ! R11   R(4,5)                  1.5605         estimate D2E/DX2                !
 ! R12   R(4,9)                  1.0946         estimate D2E/DX2                !
 ! R13   R(4,16)                 1.5422         estimate D2E/DX2                !
 ! R14   R(5,6)                  1.556          estimate D2E/DX2                !
 ! R15   R(5,10)                 1.0965         estimate D2E/DX2                !
 ! R16   R(5,11)                 1.0989         estimate D2E/DX2                !
 ! R17   R(6,12)                 1.0948         estimate D2E/DX2                !
 ! R18   R(6,13)                 1.0953         estimate D2E/DX2                !
 ! R19   R(16,17)                1.0926         estimate D2E/DX2                !
 ! R20   R(16,18)                1.0937         estimate D2E/DX2                !
 ! R21   R(16,19)                1.5584         estimate D2E/DX2                !
 ! R22   R(19,20)                1.486          estimate D2E/DX2                !
 ! R23   R(19,21)                1.093          estimate D2E/DX2                !
 ! R24   R(19,22)                1.0906         estimate D2E/DX2                !
 ! A1    A(2,1,6)              111.8156         estimate D2E/DX2                !
 ! A2    A(2,1,7)              105.365          estimate D2E/DX2                !
 ! A3    A(2,1,8)              111.6082         estimate D2E/DX2                !
 ! A4    A(6,1,7)              111.1132         estimate D2E/DX2                !
 ! A5    A(6,1,8)              110.0563         estimate D2E/DX2                !
 ! A6    A(7,1,8)              106.6821         estimate D2E/DX2                !
 ! A7    A(1,2,15)             121.5601         estimate D2E/DX2                !
 ! A8    A(1,2,20)             117.4896         estimate D2E/DX2                !
 ! A9    A(15,2,20)            120.2312         estimate D2E/DX2                !
 ! A10   A(4,3,14)             116.4398         estimate D2E/DX2                !
 ! A11   A(4,3,20)             102.2129         estimate D2E/DX2                !
 ! A12   A(4,3,23)             109.8961         estimate D2E/DX2                !
 ! A13   A(14,3,20)            110.8257         estimate D2E/DX2                !
 ! A14   A(14,3,23)            107.0158         estimate D2E/DX2                !
 ! A15   A(20,3,23)            110.4039         estimate D2E/DX2                !
 ! A16   A(3,4,5)              110.2349         estimate D2E/DX2                !
 ! A17   A(3,4,9)              111.1935         estimate D2E/DX2                !
 ! A18   A(3,4,16)             100.7393         estimate D2E/DX2                !
 ! A19   A(5,4,9)              109.2327         estimate D2E/DX2                !
 ! A20   A(5,4,16)             112.5857         estimate D2E/DX2                !
 ! A21   A(9,4,16)             112.6414         estimate D2E/DX2                !
 ! A22   A(4,5,6)              118.4177         estimate D2E/DX2                !
 ! A23   A(4,5,10)             107.0439         estimate D2E/DX2                !
 ! A24   A(4,5,11)             109.1444         estimate D2E/DX2                !
 ! A25   A(6,5,10)             106.097          estimate D2E/DX2                !
 ! A26   A(6,5,11)             109.5693         estimate D2E/DX2                !
 ! A27   A(10,5,11)            105.7925         estimate D2E/DX2                !
 ! A28   A(1,6,5)              118.4645         estimate D2E/DX2                !
 ! A29   A(1,6,12)             109.6876         estimate D2E/DX2                !
 ! A30   A(1,6,13)             107.2529         estimate D2E/DX2                !
 ! A31   A(5,6,12)             108.5213         estimate D2E/DX2                !
 ! A32   A(5,6,13)             106.8168         estimate D2E/DX2                !
 ! A33   A(12,6,13)            105.2827         estimate D2E/DX2                !
 ! A34   A(4,16,17)            110.3273         estimate D2E/DX2                !
 ! A35   A(4,16,18)            112.8182         estimate D2E/DX2                !
 ! A36   A(4,16,19)            102.7799         estimate D2E/DX2                !
 ! A37   A(17,16,18)           107.695          estimate D2E/DX2                !
 ! A38   A(17,16,19)           110.549          estimate D2E/DX2                !
 ! A39   A(18,16,19)           112.6629         estimate D2E/DX2                !
 ! A40   A(16,19,20)           105.9379         estimate D2E/DX2                !
 ! A41   A(16,19,21)           111.4029         estimate D2E/DX2                !
 ! A42   A(16,19,22)           113.5221         estimate D2E/DX2                !
 ! A43   A(20,19,21)           107.8855         estimate D2E/DX2                !
 ! A44   A(20,19,22)           110.6598         estimate D2E/DX2                !
 ! A45   A(21,19,22)           107.3315         estimate D2E/DX2                !
 ! A46   A(2,20,3)             109.6862         estimate D2E/DX2                !
 ! A47   A(2,20,19)            121.3618         estimate D2E/DX2                !
 ! A48   A(3,20,19)            106.2885         estimate D2E/DX2                !
 ! D1    D(6,1,2,15)          -120.005          estimate D2E/DX2                !
 ! D2    D(6,1,2,20)            50.2961         estimate D2E/DX2                !
 ! D3    D(7,1,2,15)             0.8172         estimate D2E/DX2                !
 ! D4    D(7,1,2,20)           171.1183         estimate D2E/DX2                !
 ! D5    D(8,1,2,15)           116.2243         estimate D2E/DX2                !
 ! D6    D(8,1,2,20)           -73.4746         estimate D2E/DX2                !
 ! D7    D(2,1,6,5)             17.6863         estimate D2E/DX2                !
 ! D8    D(2,1,6,12)          -107.6068         estimate D2E/DX2                !
 ! D9    D(2,1,6,13)           138.5486         estimate D2E/DX2                !
 ! D10   D(7,1,6,5)            -99.7337         estimate D2E/DX2                !
 ! D11   D(7,1,6,12)           134.9732         estimate D2E/DX2                !
 ! D12   D(7,1,6,13)            21.1286         estimate D2E/DX2                !
 ! D13   D(8,1,6,5)            142.3258         estimate D2E/DX2                !
 ! D14   D(8,1,6,12)            17.0327         estimate D2E/DX2                !
 ! D15   D(8,1,6,13)           -96.8119         estimate D2E/DX2                !
 ! D16   D(1,2,20,3)          -103.9971         estimate D2E/DX2                !
 ! D17   D(1,2,20,19)           20.5383         estimate D2E/DX2                !
 ! D18   D(15,2,20,3)           66.439          estimate D2E/DX2                !
 ! D19   D(15,2,20,19)        -169.0256         estimate D2E/DX2                !
 ! D20   D(14,3,4,5)            48.7289         estimate D2E/DX2                !
 ! D21   D(14,3,4,9)           -72.5679         estimate D2E/DX2                !
 ! D22   D(14,3,4,16)          167.8422         estimate D2E/DX2                !
 ! D23   D(20,3,4,5)           -72.1939         estimate D2E/DX2                !
 ! D24   D(20,3,4,9)           166.5093         estimate D2E/DX2                !
 ! D25   D(20,3,4,16)           46.9193         estimate D2E/DX2                !
 ! D26   D(23,3,4,5)           170.5682         estimate D2E/DX2                !
 ! D27   D(23,3,4,9)            49.2714         estimate D2E/DX2                !
 ! D28   D(23,3,4,16)          -70.3186         estimate D2E/DX2                !
 ! D29   D(4,3,20,2)            91.935          estimate D2E/DX2                !
 ! D30   D(4,3,20,19)          -40.9404         estimate D2E/DX2                !
 ! D31   D(14,3,20,2)          -32.7973         estimate D2E/DX2                !
 ! D32   D(14,3,20,19)        -165.6727         estimate D2E/DX2                !
 ! D33   D(23,3,20,2)         -151.1919         estimate D2E/DX2                !
 ! D34   D(23,3,20,19)          75.9327         estimate D2E/DX2                !
 ! D35   D(3,4,5,6)             78.3514         estimate D2E/DX2                !
 ! D36   D(3,4,5,10)          -161.9382         estimate D2E/DX2                !
 ! D37   D(3,4,5,11)           -47.8748         estimate D2E/DX2                !
 ! D38   D(9,4,5,6)           -159.1908         estimate D2E/DX2                !
 ! D39   D(9,4,5,10)           -39.4804         estimate D2E/DX2                !
 ! D40   D(9,4,5,11)            74.5829         estimate D2E/DX2                !
 ! D41   D(16,4,5,6)           -33.2672         estimate D2E/DX2                !
 ! D42   D(16,4,5,10)           86.4432         estimate D2E/DX2                !
 ! D43   D(16,4,5,11)         -159.4935         estimate D2E/DX2                !
 ! D44   D(3,4,16,17)           83.2815         estimate D2E/DX2                !
 ! D45   D(3,4,16,18)         -156.2197         estimate D2E/DX2                !
 ! D46   D(3,4,16,19)          -34.6137         estimate D2E/DX2                !
 ! D47   D(5,4,16,17)         -159.3203         estimate D2E/DX2                !
 ! D48   D(5,4,16,18)          -38.8216         estimate D2E/DX2                !
 ! D49   D(5,4,16,19)           82.7844         estimate D2E/DX2                !
 ! D50   D(9,4,16,17)          -35.2603         estimate D2E/DX2                !
 ! D51   D(9,4,16,18)           85.2385         estimate D2E/DX2                !
 ! D52   D(9,4,16,19)         -153.1555         estimate D2E/DX2                !
 ! D53   D(4,5,6,1)            -68.0642         estimate D2E/DX2                !
 ! D54   D(4,5,6,12)            57.7938         estimate D2E/DX2                !
 ! D55   D(4,5,6,13)           170.851          estimate D2E/DX2                !
 ! D56   D(10,5,6,1)           171.7365         estimate D2E/DX2                !
 ! D57   D(10,5,6,12)          -62.4056         estimate D2E/DX2                !
 ! D58   D(10,5,6,13)           50.6516         estimate D2E/DX2                !
 ! D59   D(11,5,6,1)            57.9575         estimate D2E/DX2                !
 ! D60   D(11,5,6,12)         -176.1845         estimate D2E/DX2                !
 ! D61   D(11,5,6,13)          -63.1273         estimate D2E/DX2                !
 ! D62   D(4,16,19,20)          11.1696         estimate D2E/DX2                !
 ! D63   D(4,16,19,21)         128.2334         estimate D2E/DX2                !
 ! D64   D(4,16,19,22)        -110.4634         estimate D2E/DX2                !
 ! D65   D(17,16,19,20)       -106.569          estimate D2E/DX2                !
 ! D66   D(17,16,19,21)         10.4947         estimate D2E/DX2                !
 ! D67   D(17,16,19,22)        131.7979         estimate D2E/DX2                !
 ! D68   D(18,16,19,20)        132.8812         estimate D2E/DX2                !
 ! D69   D(18,16,19,21)       -110.055          estimate D2E/DX2                !
 ! D70   D(18,16,19,22)         11.2482         estimate D2E/DX2                !
 ! D71   D(16,19,20,2)        -107.6371         estimate D2E/DX2                !
 ! D72   D(16,19,20,3)          18.4559         estimate D2E/DX2                !
 ! D73   D(21,19,20,2)         132.9604         estimate D2E/DX2                !
 ! D74   D(21,19,20,3)        -100.9466         estimate D2E/DX2                !
 ! D75   D(22,19,20,2)          15.8166         estimate D2E/DX2                !
 ! D76   D(22,19,20,3)         141.9096         estimate D2E/DX2                !
 --------------------------------------------------------------------------------
 Trust Radius=3.00D-01 FncErr=1.00D-07 GrdErr=1.00D-06 EigMax=2.50D+02 EigMin=1.00D-04
 Number of steps in this run=    138 maximum allowed number of steps=    138.
 GradGradGradGradGradGradGradGradGradGradGradGradGradGradGradGradGradGrad

                          Input orientation:                          
 ---------------------------------------------------------------------
 Center     Atomic      Atomic             Coordinates (Angstroms)
 Number     Number       Type             X           Y           Z
 ---------------------------------------------------------------------
      1          6           0       -0.414106    1.868081    1.072368
      2          6           0       -1.232388    0.642130    0.689376
      3          6           0       -0.347104   -0.942134   -0.800780
      4          6           0        1.035194   -0.339636   -1.086318
      5          6           0        0.943475    1.216951   -1.146691
      6          6           0        0.872139    2.007013    0.191936
      7          1           0       -1.082868    2.718703    0.928454
      8          1           0       -0.143408    1.856937    2.133852
      9          1           0        1.442463   -0.713733   -2.030930
     10          1           0        1.843917    1.572220   -1.661783
     11          1           0        0.098971    1.503556   -1.788682
     12          1           0        1.756151    1.760343    0.788897
     13          1           0        0.980493    3.067418   -0.059813
     14          1           0       -1.171177   -0.577358   -1.413067
     15          8           0       -2.383764    0.739394    0.301147
     16          6           0        1.825412   -0.839296    0.140233
     17          1           0        2.182592   -1.858166   -0.027680
     18          1           0        2.694568   -0.215582    0.367668
     19          6           0        0.755514   -0.814435    1.273119
     20          7           0       -0.549878   -0.597834    0.596887
     21          1           0        0.707201   -1.772352    1.797187
     22          1           0        0.933255   -0.042574    2.022789
     23          9           0       -0.302754   -2.336810   -0.960036
 ---------------------------------------------------------------------
                    Distance matrix (angstroms):
                    1          2          3          4          5
     1  C    0.000000
     2  C    1.522900   0.000000
     3  C    3.377940   2.348230   0.000000
     4  C    3.410925   3.042841   1.534693   0.000000
     5  C    2.681645   2.904469   2.539074   1.560455   0.000000
     6  C    1.564893   2.557222   3.342081   2.677178   1.556023
     7  H    1.091564   2.095631   4.115012   4.230713   3.266122
     8  H    1.095514   2.179024   4.060586   4.072288   3.514663
     9  H    4.443318   4.048859   2.183572   1.094581   2.181378
    10  H    3.558340   3.982043   3.444398   2.154156   1.096509
    11  H    2.929460   2.941996   2.675132   2.183389   1.098855
    12  H    2.191342   3.192440   3.775465   2.906221   2.168460
    13  H    2.159896   3.367514   4.288129   3.558753   2.146370
    14  H    3.568013   2.431289   1.089520   2.243067   2.786082
    15  O    2.397555   1.218954   2.861776   3.844300   3.659893
    16  C    3.635135   3.441849   2.369790   1.542249   2.581112
    17  H    4.673100   4.292754   2.799314   2.177882   3.499134
    18  H    3.808163   4.032388   3.338400   2.209748   2.722455
    19  C    2.933292   2.532606   2.352261   2.422932   3.165018
    20  N    2.515006   1.418409   1.453662   2.326435   2.926365
    21  H    3.877556   3.289221   2.924082   3.236488   4.202163
    22  H    2.523744   2.633784   3.228168   3.124929   3.410588
    23  F    4.671635   3.529711   1.404440   2.407230   3.770563
                    6          7          8          9         10
     6  C    0.000000
     7  H    2.207037   0.000000
     8  H    2.196565   1.754483   0.000000
     9  H    3.559334   5.188147   5.144778   0.000000
    10  H    2.137679   4.073060   4.293876   2.350110   0.000000
    11  H    2.184973   3.202523   3.945871   2.603848   1.750901
    12  H    1.094845   2.999660   2.329498   3.764422   2.459456
    13  H    1.095252   2.314246   2.746012   4.289035   2.355297
    14  H    3.664717   4.044074   4.422978   2.689139   3.711245
    15  O    3.495667   2.450206   3.102725   4.710645   4.734974
    16  C    3.002145   4.662482   3.888501   2.208249   3.010484
    17  H    4.087191   5.703083   4.887176   2.422917   3.814779
    18  H    2.879593   4.815966   3.933046   2.751217   2.835227
    19  C    3.023760   3.997688   2.947058   3.376208   3.936292
    20  N    2.995220   3.375416   2.924616   3.299739   3.942205
    21  H    4.109457   4.912089   3.742809   4.039278   4.943962
    22  H    2.748921   3.589843   2.186248   4.140336   4.124674
    23  F    4.645020   5.452814   5.213928   2.612848   4.514550
                   11         12         13         14         15
    11  H    0.000000
    12  H    3.075077   0.000000
    13  H    2.492335   1.740804   0.000000
    14  H    2.466691   4.345428   4.443577   0.000000
    15  O    3.333962   4.291752   4.107093   2.478454   0.000000
    16  C    3.491456   2.680240   4.002040   3.385395   4.498368
    17  H    4.329409   3.733933   5.070252   3.848056   5.263749
    18  H    3.787137   2.227631   3.728120   4.271520   5.167771
    19  C    3.895992   2.804501   4.110487   3.314203   3.635131
    20  N    3.244655   3.303882   4.025837   2.103888   2.288838
    21  H    4.894893   3.820586   5.191003   3.906667   4.254535
    22  H    4.196887   2.334557   3.743196   4.064448   3.818133
    23  F    3.949234   4.907598   5.626971   2.013720   3.922272
                   16         17         18         19         20
    16  C    0.000000
    17  H    1.092643   0.000000
    18  H    1.093699   1.765362   0.000000
    19  C    1.558438   2.194995   2.222250   0.000000
    20  N    2.430810   3.073258   3.274918   1.486020   0.000000
    21  H    2.206011   2.348251   2.901152   1.092971   2.097727
    22  H    2.230410   3.010256   2.423134   1.090581   2.131008
    23  F    2.825284   2.697282   3.904657   2.902505   2.347151
                   21         22         23
    21  H    0.000000
    22  H    1.759014   0.000000
    23  F    2.990134   3.960869   0.000000
 Symmetry turned off by external request.
 Stoichiometry    C8H12FNO
 Framework group  C1[X(C8H12FNO)]
 Deg. of freedom    63
 Full point group                 C1      NOp   1
 Rotational constants (GHZ):           1.5658455           1.1879959           0.9309580
 Standard basis: 6-31+G(d,p) (6D, 7F)
   269 basis functions,   436 primitive gaussians,   269 cartesian basis functions
    42 alpha electrons       42 beta electrons
       nuclear repulsion energy       687.3812824847 Hartrees.
 NAtoms=   23 NActive=   23 NUniq=   23 SFac= 1.00D+00 NAtFMM=   60 NAOKFM=F Big=F
 Integral buffers will be    131072 words long.
 Raffenetti 2 integral format.
 Two-electron integral symmetry is turned off.
 One-electron integrals computed using PRISM.
 NBasis=   269 RedAO= T EigKep=  1.10D-05  NBF=   269
 NBsUse=   269 1.00D-06 EigRej= -1.00D+00 NBFU=   269
 ExpMin= 4.38D-02 ExpMax= 7.00D+03 ExpMxC= 1.05D+03 IAcc=3 IRadAn=         5 AccDes= 0.00D+00
 Harris functional with IExCor=  402 and IRadAn=       5 diagonalized for initial guess.
 HarFok:  IExCor=  402 AccDes= 0.00D+00 IRadAn=         5 IDoV= 1 UseB2=F ITyADJ=14
 ICtDFT=  3500011 ScaDFX=  1.000000  1.000000  1.000000  1.000000
 FoFCou: FMM=F IPFlag=           0 FMFlag=      100000 FMFlg1=           0
         NFxFlg=           0 DoJE=T BraDBF=F KetDBF=T FulRan=T
         wScrn=  0.000000 ICntrl=       500 IOpCl=  0 I1Cent=   200000004 NGrid=           0
         NMat0=    1 NMatS0=      1 NMatT0=    0 NMatD0=    1 NMtDS0=    0 NMtDT0=    0
 Symmetry not used in FoFCou.
 Requested convergence on RMS density matrix=1.00D-08 within 128 cycles.
 Requested convergence on MAX density matrix=1.00D-06.
 Requested convergence on             energy=1.00D-06.
 No special actions if energy rises.
 SCF Done:  E(RB3LYP) =  -541.919152721     A.U. after   13 cycles
            NFock= 13  Conv=0.95D-08     -V/T= 2.0092

 **********************************************************************

            Population analysis using the SCF density.

 **********************************************************************

 Alpha  occ. eigenvalues --  -24.69927 -19.14623 -14.36604 -10.30781 -10.30337
 Alpha  occ. eigenvalues --  -10.23432 -10.21473 -10.21466 -10.21181 -10.21170
 Alpha  occ. eigenvalues --  -10.20529  -1.20013  -1.05943  -0.96013  -0.82309
 Alpha  occ. eigenvalues --   -0.80041  -0.75822  -0.70269  -0.66346  -0.63080
 Alpha  occ. eigenvalues --   -0.58128  -0.56785  -0.52683  -0.51729  -0.50391
 Alpha  occ. eigenvalues --   -0.47288  -0.46329  -0.45100  -0.44595  -0.42906
 Alpha  occ. eigenvalues --   -0.41804  -0.41074  -0.40493  -0.38746  -0.36909
 Alpha  occ. eigenvalues --   -0.36365  -0.36078  -0.35065  -0.33971  -0.33250
 Alpha  occ. eigenvalues --   -0.26936  -0.26094
 Alpha virt. eigenvalues --   -0.02671  -0.00913   0.00578   0.01294   0.01925
 Alpha virt. eigenvalues --    0.03126   0.03355   0.03639   0.04669   0.05372
 Alpha virt. eigenvalues --    0.07209   0.07562   0.07946   0.08580   0.08993
 Alpha virt. eigenvalues --    0.09122   0.09375   0.11173   0.11607   0.11988
 Alpha virt. eigenvalues --    0.12643   0.12917   0.13583   0.13808   0.14380
 Alpha virt. eigenvalues --    0.15004   0.15209   0.16493   0.17083   0.17436
 Alpha virt. eigenvalues --    0.17946   0.18594   0.19049   0.19171   0.19605
 Alpha virt. eigenvalues --    0.20367   0.20986   0.21293   0.21943   0.22585
 Alpha virt. eigenvalues --    0.23773   0.24498   0.25838   0.26637   0.26737
 Alpha virt. eigenvalues --    0.28251   0.28848   0.29869   0.30566   0.30777
 Alpha virt. eigenvalues --    0.31729   0.32779   0.33962   0.34081   0.34373
 Alpha virt. eigenvalues --    0.35483   0.36669   0.37153   0.37757   0.38165
 Alpha virt. eigenvalues --    0.38488   0.39995   0.41308   0.41913   0.43558
 Alpha virt. eigenvalues --    0.45105   0.47152   0.48119   0.51036   0.58792
 Alpha virt. eigenvalues --    0.62152   0.63802   0.64378   0.66142   0.68024
 Alpha virt. eigenvalues --    0.68599   0.70797   0.72254   0.72586   0.74709
 Alpha virt. eigenvalues --    0.75826   0.77301   0.79170   0.79851   0.80839
 Alpha virt. eigenvalues --    0.84699   0.85291   0.86634   0.87737   0.89996
 Alpha virt. eigenvalues --    0.91116   0.93315   0.94727   0.95352   0.96898
 Alpha virt. eigenvalues --    0.99659   1.01232   1.02852   1.03792   1.05815
 Alpha virt. eigenvalues --    1.07427   1.08914   1.09851   1.11292   1.12777
 Alpha virt. eigenvalues --    1.14771   1.16676   1.19569   1.23229   1.26998
 Alpha virt. eigenvalues --    1.28993   1.31199   1.33100   1.35601   1.39179
 Alpha virt. eigenvalues --    1.39488   1.42854   1.46920   1.48811   1.50988
 Alpha virt. eigenvalues --    1.54494   1.55188   1.59745   1.62055   1.62784
 Alpha virt. eigenvalues --    1.64614   1.66081   1.67452   1.69513   1.71005
 Alpha virt. eigenvalues --    1.73005   1.73650   1.74500   1.77030   1.79653
 Alpha virt. eigenvalues --    1.81003   1.81327   1.83497   1.84368   1.85803
 Alpha virt. eigenvalues --    1.87286   1.89199   1.90842   1.92518   1.93926
 Alpha virt. eigenvalues --    1.95925   1.96428   1.99189   2.02605   2.03996
 Alpha virt. eigenvalues --    2.07082   2.07817   2.08571   2.09025   2.09961
 Alpha virt. eigenvalues --    2.13804   2.16985   2.19146   2.21561   2.24578
 Alpha virt. eigenvalues --    2.26287   2.27200   2.30355   2.30657   2.31496
 Alpha virt. eigenvalues --    2.33465   2.34988   2.37947   2.39956   2.41615
 Alpha virt. eigenvalues --    2.42527   2.43895   2.44738   2.47410   2.51112
 Alpha virt. eigenvalues --    2.51880   2.54844   2.56910   2.58001   2.58671
 Alpha virt. eigenvalues --    2.60529   2.62128   2.65177   2.66019   2.68761
 Alpha virt. eigenvalues --    2.68936   2.72446   2.75421   2.76543   2.79536
 Alpha virt. eigenvalues --    2.80861   2.81233   2.83015   2.84404   2.86436
 Alpha virt. eigenvalues --    2.89387   2.91504   2.93930   2.97567   3.01957
 Alpha virt. eigenvalues --    3.06790   3.09069   3.19960   3.24925   3.28467
 Alpha virt. eigenvalues --    3.31217   3.34440   3.37113   3.39007   3.42451
 Alpha virt. eigenvalues --    3.44090   3.46698   3.51625   3.52618   3.57011
 Alpha virt. eigenvalues --    3.59193   4.31881   4.35754   4.42122   4.43439
 Alpha virt. eigenvalues --    4.60731   4.63930   4.71776   4.78596   4.86123
 Alpha virt. eigenvalues --    4.90860   6.24741
          Condensed to atoms (all electrons):
               1          2          3          4          5          6
     1  C    6.618437  -0.663231   0.264834  -0.257441   0.118426  -0.256789
     2  C   -0.663231   6.248613  -0.515606   0.427033  -0.262085   0.217390
     3  C    0.264834  -0.515606   5.659356   0.021707   0.033101  -0.192707
     4  C   -0.257441   0.427033   0.021707   6.537353  -0.208325   0.125334
     5  C    0.118426  -0.262085   0.033101  -0.208325   5.763217  -0.024814
     6  C   -0.256789   0.217390  -0.192707   0.125334  -0.024814   5.716855
     7  H    0.425849  -0.037706   0.004203  -0.012142   0.006650  -0.059598
     8  H    0.343742  -0.016971   0.005613  -0.005009   0.019742  -0.037332
     9  H   -0.002400  -0.003861  -0.022311   0.266125  -0.011967   0.018007
    10  H    0.046017  -0.025037   0.030114  -0.071895   0.433535  -0.087643
    11  H   -0.001194  -0.001701  -0.005968  -0.049949   0.412721  -0.039256
    12  H   -0.044139   0.002549  -0.006123   0.007628  -0.070331   0.431726
    13  H   -0.019379   0.004067   0.002560   0.005959  -0.017193   0.358800
    14  H    0.005163   0.030723   0.369865   0.011626  -0.029338   0.001936
    15  O   -0.263248   0.680188  -0.088078   0.051941  -0.040420   0.052688
    16  C    0.000672  -0.032239   0.142509  -0.225484   0.034715  -0.079109
    17  H    0.003922  -0.003600   0.017616  -0.070256   0.011006  -0.006016
    18  H   -0.003528   0.000024   0.013090  -0.066037   0.009991  -0.013126
    19  C   -0.025027   0.056167  -0.255057   0.103710  -0.043030   0.039494
    20  N   -0.115025  -0.207188   0.243012  -0.598933   0.180705   0.049294
    21  H    0.004180  -0.020642  -0.013465  -0.005540   0.010217  -0.004673
    22  H   -0.000780  -0.006607   0.005386   0.035738  -0.005100   0.002246
    23  F   -0.004008   0.000341   0.150096  -0.109125   0.025980  -0.004505
               7          8          9         10         11         12
     1  C    0.425849   0.343742  -0.002400   0.046017  -0.001194  -0.044139
     2  C   -0.037706  -0.016971  -0.003861  -0.025037  -0.001701   0.002549
     3  C    0.004203   0.005613  -0.022311   0.030114  -0.005968  -0.006123
     4  C   -0.012142  -0.005009   0.266125  -0.071895  -0.049949   0.007628
     5  C    0.006650   0.019742  -0.011967   0.433535   0.412721  -0.070331
     6  C   -0.059598  -0.037332   0.018007  -0.087643  -0.039256   0.431726
     7  H    0.518045  -0.025711   0.000003  -0.000051   0.000905   0.004133
     8  H   -0.025711   0.553025   0.000003  -0.000127  -0.000063  -0.010080
     9  H    0.000003   0.000003   0.573705  -0.006897  -0.000675  -0.000035
    10  H   -0.000051  -0.000127  -0.006897   0.571678  -0.027494  -0.002919
    11  H    0.000905  -0.000063  -0.000675  -0.027494   0.567914   0.005084
    12  H    0.004133  -0.010080  -0.000035  -0.002919   0.005084   0.585145
    13  H   -0.008941   0.001858  -0.000084  -0.004906  -0.003116  -0.030452
    14  H   -0.000016  -0.000027  -0.001648   0.000050   0.003953   0.000002
    15  O   -0.006227   0.004252  -0.000193   0.000187  -0.000124  -0.000518
    16  C    0.006167   0.004820   0.018164   0.000903   0.002496  -0.009420
    17  H    0.000001  -0.000004  -0.004676  -0.000043  -0.000116   0.000061
    18  H   -0.000006   0.000036   0.000640   0.001597   0.000123   0.001706
    19  C   -0.005395  -0.004760   0.002502  -0.000087   0.001229   0.001770
    20  N    0.010531   0.005725   0.033020  -0.003516  -0.018939  -0.006363
    21  H   -0.000001   0.000156  -0.000011   0.000002   0.000012   0.000125
    22  H    0.000144  -0.001111  -0.000190   0.000027   0.000005   0.000791
    23  F    0.000027   0.000059  -0.002573  -0.000328   0.000818   0.000007
              13         14         15         16         17         18
     1  C   -0.019379   0.005163  -0.263248   0.000672   0.003922  -0.003528
     2  C    0.004067   0.030723   0.680188  -0.032239  -0.003600   0.000024
     3  C    0.002560   0.369865  -0.088078   0.142509   0.017616   0.013090
     4  C    0.005959   0.011626   0.051941  -0.225484  -0.070256  -0.066037
     5  C   -0.017193  -0.029338  -0.040420   0.034715   0.011006   0.009991
     6  C    0.358800   0.001936   0.052688  -0.079109  -0.006016  -0.013126
     7  H   -0.008941  -0.000016  -0.006227   0.006167   0.000001  -0.000006
     8  H    0.001858  -0.000027   0.004252   0.004820  -0.000004   0.000036
     9  H   -0.000084  -0.001648  -0.000193   0.018164  -0.004676   0.000640
    10  H   -0.004906   0.000050   0.000187   0.000903  -0.000043   0.001597
    11  H   -0.003116   0.003953  -0.000124   0.002496  -0.000116   0.000123
    12  H   -0.030452   0.000002  -0.000518  -0.009420   0.000061   0.001706
    13  H    0.559088  -0.000001  -0.000118   0.002601  -0.000002  -0.000006
    14  H   -0.000001   0.558893   0.001155  -0.001066  -0.000126  -0.000121
    15  O   -0.000118   0.001155   8.105052  -0.013306   0.000008   0.000103
    16  C    0.002601  -0.001066  -0.013306   5.711661   0.445265   0.422812
    17  H   -0.000002  -0.000126   0.000008   0.445265   0.535663  -0.029723
    18  H   -0.000006  -0.000121   0.000103   0.422812  -0.029723   0.561099
    19  C   -0.000813   0.012310   0.025810   0.032302  -0.071086  -0.046644
    20  N   -0.000728  -0.077298  -0.098510   0.034680   0.008917   0.005555
    21  H   -0.000003  -0.000144  -0.000180  -0.040820  -0.007878   0.003434
    22  H    0.000117  -0.000186   0.000682  -0.073401   0.003813  -0.007135
    23  F    0.000017  -0.044389  -0.001667   0.011303   0.000211   0.000136
              19         20         21         22         23
     1  C   -0.025027  -0.115025   0.004180  -0.000780  -0.004008
     2  C    0.056167  -0.207188  -0.020642  -0.006607   0.000341
     3  C   -0.255057   0.243012  -0.013465   0.005386   0.150096
     4  C    0.103710  -0.598933  -0.005540   0.035738  -0.109125
     5  C   -0.043030   0.180705   0.010217  -0.005100   0.025980
     6  C    0.039494   0.049294  -0.004673   0.002246  -0.004505
     7  H   -0.005395   0.010531  -0.000001   0.000144   0.000027
     8  H   -0.004760   0.005725   0.000156  -0.001111   0.000059
     9  H    0.002502   0.033020  -0.000011  -0.000190  -0.002573
    10  H   -0.000087  -0.003516   0.000002   0.000027  -0.000328
    11  H    0.001229  -0.018939   0.000012   0.000005   0.000818
    12  H    0.001770  -0.006363   0.000125   0.000791   0.000007
    13  H   -0.000813  -0.000728  -0.000003   0.000117   0.000017
    14  H    0.012310  -0.077298  -0.000144  -0.000186  -0.044389
    15  O    0.025810  -0.098510  -0.000180   0.000682  -0.001667
    16  C    0.032302   0.034680  -0.040820  -0.073401   0.011303
    17  H   -0.071086   0.008917  -0.007878   0.003813   0.000211
    18  H   -0.046644   0.005555   0.003434  -0.007135   0.000136
    19  C    5.592160  -0.030203   0.424237   0.422049  -0.026896
    20  N   -0.030203   7.746251  -0.030659  -0.052866   0.004561
    21  H    0.424237  -0.030659   0.555234  -0.032734   0.003322
    22  H    0.422049  -0.052866  -0.032734   0.577373  -0.000016
    23  F   -0.026896   0.004561   0.003322  -0.000016   9.361564
 Mulliken charges:
               1
     1  C   -0.175052
     2  C    0.129377
     3  C    0.136255
     4  C    0.085983
     5  C   -0.347403
     6  C   -0.208204
     7  H    0.179137
     8  H    0.162164
     9  H    0.145353
    10  H    0.146832
    11  H    0.153336
    12  H    0.139654
    13  H    0.150673
    14  H    0.158683
    15  O   -0.409477
    16  C   -0.396225
    17  H    0.167044
    18  H    0.145980
    19  C   -0.204742
    20  N   -0.082023
    21  H    0.155832
    22  H    0.131757
    23  F   -0.364934
 Sum of Mulliken charges =  -0.00000
 Mulliken charges with hydrogens summed into heavy atoms:
               1
     1  C    0.166250
     2  C    0.129377
     3  C    0.294938
     4  C    0.231336
     5  C   -0.047235
     6  C    0.082123
    15  O   -0.409477
    16  C   -0.083201
    19  C    0.082847
    20  N   -0.082023
    23  F   -0.364934
 Electronic spatial extent (au):  <R**2>=           1447.3502
 Charge=              0.0000 electrons
 Dipole moment (field-independent basis, Debye):
    X=              4.5240    Y=              2.2934    Z=              0.5123  Tot=              5.0979
 Quadrupole moment (field-independent basis, Debye-Ang):
   XX=            -74.4545   YY=            -68.9576   ZZ=            -62.0719
   XY=              0.4481   XZ=              1.2938   YZ=             -1.0096
 Traceless Quadrupole moment (field-independent basis, Debye-Ang):
   XX=             -5.9598   YY=             -0.4629   ZZ=              6.4228
   XY=              0.4481   XZ=              1.2938   YZ=             -1.0096
 Octapole moment (field-independent basis, Debye-Ang**2):
  XXX=              8.2919  YYY=             -6.2634  ZZZ=             -5.0827  XYY=             -1.0099
  XXY=            -15.8554  XXZ=             -6.6028  XZZ=             -6.7353  YZZ=             -5.7432
  YYZ=              5.0648  XYZ=             -1.1564
 Hexadecapole moment (field-independent basis, Debye-Ang**3):
 XXXX=           -722.3538 YYYY=           -799.6871 ZZZZ=           -409.7058 XXXY=             48.6962
 XXXZ=             48.7998 YYYX=             14.5686 YYYZ=            -74.1275 ZZZX=             42.2368
 ZZZY=            -53.5816 XXYY=           -244.9100 XXZZ=           -174.0745 YYZZ=           -204.2716
 XXYZ=            -18.7088 YYXZ=             11.6603 ZZXY=              6.8579
 N-N= 6.873812824847D+02 E-N=-2.638765872641D+03  KE= 5.369772117345D+02
 Calling FoFJK, ICntrl=      2127 FMM=F ISym2X=0 I1Cent= 0 IOpClX= 0 NMat=1 NMatS=1 NMatT=0.
 -------------------------------------------------------------------
 Center     Atomic                   Forces (Hartrees/Bohr)
 Number     Number              X              Y              Z
 -------------------------------------------------------------------
      1        6           0.000169124   -0.000158925    0.000082495
      2        6          -0.000168309   -0.000114850   -0.000010602
      3        6          -0.000194693    0.000067244   -0.000011150
      4        6          -0.000042857    0.000076815   -0.000020532
      5        6           0.000089783    0.000027609   -0.000104109
      6        6           0.000197867    0.000007101    0.000101961
      7        1          -0.000081643    0.000073359   -0.000073060
      8        1          -0.000050282    0.000039676   -0.000096267
      9        1           0.000029989    0.000007142   -0.000012806
     10        1          -0.000147934   -0.000093897    0.000088370
     11        1           0.000095311   -0.000055809    0.000077463
     12        1          -0.000211391    0.000059425   -0.000093546
     13        1           0.000013109   -0.000020076    0.000001911
     14        1           0.000122972   -0.000017460    0.000052325
     15        8          -0.000025668    0.000157160   -0.000019614
     16        6           0.000011771   -0.000057988   -0.000018543
     17        1          -0.000015392    0.000124965    0.000055657
     18        1          -0.000140455   -0.000065915   -0.000012420
     19        6           0.000026914   -0.000089309   -0.000267233
     20        7           0.000339929   -0.000131288    0.000226393
     21        1           0.000012833    0.000046006   -0.000022691
     22        1          -0.000045434   -0.000013344    0.000003967
     23        9           0.000014454    0.000132359    0.000072033
 -------------------------------------------------------------------
 Cartesian Forces:  Max     0.000339929 RMS     0.000104358

 GradGradGradGradGradGradGradGradGradGradGradGradGradGradGradGradGradGrad
 Berny optimization.
 FormGI is forming the generalized inverse of G from B-inverse, IUseBI=4.
 Internal  Forces:  Max     0.000236263 RMS     0.000057243
 Search for a local minimum.
 Step number   1 out of a maximum of  138
 All quantities printed in internal units (Hartrees-Bohrs-Radians)
 Mixed Optimization -- En-DIIS/RFO-DIIS
 Second derivative matrix not updated -- first step.
 ITU=  0
     Eigenvalues ---    0.00316   0.00463   0.00675   0.00917   0.01461
     Eigenvalues ---    0.02033   0.02534   0.02774   0.03305   0.03645
     Eigenvalues ---    0.03723   0.04070   0.04678   0.04730   0.04795
     Eigenvalues ---    0.05004   0.05233   0.05648   0.05742   0.06192
     Eigenvalues ---    0.06679   0.07528   0.07921   0.08409   0.08586
     Eigenvalues ---    0.08827   0.09245   0.09271   0.09329   0.09465
     Eigenvalues ---    0.10329   0.10984   0.12146   0.12932   0.15227
     Eigenvalues ---    0.17751   0.19504   0.21811   0.24227   0.24857
     Eigenvalues ---    0.25622   0.25769   0.26511   0.26798   0.27427
     Eigenvalues ---    0.29454   0.32301   0.33809   0.34071   0.34183
     Eigenvalues ---    0.34213   0.34259   0.34289   0.34389   0.34472
     Eigenvalues ---    0.34509   0.34591   0.34633   0.34746   0.34868
     Eigenvalues ---    0.40442   0.44893   0.95848
 RFO step:  Lambda=-3.48607234D-06 EMin= 3.15937773D-03
 Linear search not attempted -- first point.
 Iteration  1 RMS(Cart)=  0.00154397 RMS(Int)=  0.00000183
 Iteration  2 RMS(Cart)=  0.00000221 RMS(Int)=  0.00000046
 Iteration  3 RMS(Cart)=  0.00000000 RMS(Int)=  0.00000046
 Variable       Old X    -DE/DX   Delta X   Delta X   Delta X     New X
                                 (Linear)    (Quad)   (Total)
    R1        2.87786  -0.00000   0.00000   0.00003   0.00003   2.87790
    R2        2.95722  -0.00003   0.00000  -0.00008  -0.00008   2.95714
    R3        2.06276   0.00012   0.00000   0.00034   0.00034   2.06310
    R4        2.07022  -0.00011   0.00000  -0.00031  -0.00031   2.06991
    R5        2.30349   0.00004   0.00000   0.00005   0.00005   2.30354
    R6        2.68041   0.00012   0.00000   0.00034   0.00034   2.68075
    R7        2.90015  -0.00003   0.00000   0.00004   0.00004   2.90019
    R8        2.05889  -0.00013   0.00000  -0.00037  -0.00037   2.05852
    R9        2.74702  -0.00008   0.00000  -0.00025  -0.00025   2.74677
   R10        2.65401  -0.00014   0.00000  -0.00031  -0.00031   2.65370
   R11        2.94883  -0.00013   0.00000  -0.00059  -0.00059   2.94824
   R12        2.06846   0.00002   0.00000   0.00006   0.00006   2.06852
   R13        2.91443  -0.00007   0.00000  -0.00034  -0.00034   2.91409
   R14        2.94046  -0.00003   0.00000  -0.00008  -0.00008   2.94038
   R15        2.07210  -0.00019   0.00000  -0.00057  -0.00057   2.07153
   R16        2.07653  -0.00013   0.00000  -0.00040  -0.00040   2.07614
   R17        2.06896  -0.00024   0.00000  -0.00069  -0.00069   2.06827
   R18        2.06973  -0.00002   0.00000  -0.00005  -0.00005   2.06967
   R19        2.06480  -0.00013   0.00000  -0.00038  -0.00038   2.06442
   R20        2.06679  -0.00015   0.00000  -0.00044  -0.00044   2.06636
   R21        2.94502  -0.00013   0.00000  -0.00056  -0.00056   2.94446
   R22        2.80817  -0.00017   0.00000  -0.00048  -0.00048   2.80769
   R23        2.06542  -0.00005   0.00000  -0.00015  -0.00015   2.06527
   R24        2.06090  -0.00001   0.00000  -0.00004  -0.00004   2.06086
    A1        1.95155   0.00007   0.00000   0.00077   0.00077   1.95232
    A2        1.83897  -0.00005   0.00000  -0.00069  -0.00069   1.83827
    A3        1.94793  -0.00001   0.00000   0.00022   0.00022   1.94815
    A4        1.93929  -0.00001   0.00000  -0.00057  -0.00057   1.93872
    A5        1.92084  -0.00002   0.00000   0.00027   0.00027   1.92111
    A6        1.86195   0.00001   0.00000  -0.00008  -0.00008   1.86188
    A7        2.12162  -0.00014   0.00000  -0.00100  -0.00100   2.12062
    A8        2.05058  -0.00005   0.00000   0.00014   0.00014   2.05072
    A9        2.09843   0.00018   0.00000   0.00033   0.00033   2.09876
   A10        2.03226  -0.00001   0.00000  -0.00016  -0.00016   2.03209
   A11        1.78395   0.00002   0.00000   0.00033   0.00033   1.78428
   A12        1.91805  -0.00002   0.00000  -0.00025  -0.00025   1.91780
   A13        1.93427   0.00003   0.00000   0.00033   0.00033   1.93460
   A14        1.86778   0.00003   0.00000   0.00026   0.00026   1.86804
   A15        1.92691  -0.00005   0.00000  -0.00056  -0.00056   1.92635
   A16        1.92396   0.00000   0.00000   0.00025   0.00025   1.92421
   A17        1.94069   0.00004   0.00000   0.00039   0.00039   1.94109
   A18        1.75823  -0.00005   0.00000   0.00011   0.00011   1.75834
   A19        1.90647  -0.00002   0.00000  -0.00007  -0.00007   1.90640
   A20        1.96499   0.00003   0.00000  -0.00055  -0.00055   1.96444
   A21        1.96596  -0.00000   0.00000  -0.00009  -0.00009   1.96587
   A22        2.06678   0.00007   0.00000   0.00011   0.00011   2.06689
   A23        1.86827  -0.00003   0.00000  -0.00025  -0.00025   1.86802
   A24        1.90493  -0.00004   0.00000  -0.00019  -0.00019   1.90474
   A25        1.85174   0.00001   0.00000   0.00018   0.00018   1.85192
   A26        1.91235  -0.00002   0.00000   0.00003   0.00003   1.91238
   A27        1.84643   0.00002   0.00000   0.00013   0.00013   1.84656
   A28        2.06760  -0.00006   0.00000  -0.00004  -0.00004   2.06756
   A29        1.91441  -0.00002   0.00000  -0.00025  -0.00025   1.91416
   A30        1.87192   0.00004   0.00000   0.00003   0.00003   1.87195
   A31        1.89405   0.00006   0.00000   0.00044   0.00044   1.89449
   A32        1.86431   0.00000   0.00000  -0.00016  -0.00016   1.86415
   A33        1.83753  -0.00001   0.00000  -0.00003  -0.00003   1.83750
   A34        1.92558   0.00003   0.00000   0.00057   0.00057   1.92614
   A35        1.96905  -0.00002   0.00000  -0.00020  -0.00020   1.96885
   A36        1.79385   0.00001   0.00000   0.00009   0.00009   1.79393
   A37        1.87963   0.00000   0.00000  -0.00003  -0.00003   1.87961
   A38        1.92944  -0.00002   0.00000   0.00007   0.00007   1.92952
   A39        1.96634  -0.00001   0.00000  -0.00047  -0.00047   1.96587
   A40        1.84897   0.00004   0.00000   0.00040   0.00040   1.84936
   A41        1.94435   0.00000   0.00000  -0.00015  -0.00015   1.94420
   A42        1.98133   0.00000   0.00000   0.00027   0.00027   1.98160
   A43        1.88296  -0.00000   0.00000   0.00003   0.00003   1.88299
   A44        1.93138  -0.00004   0.00000  -0.00041  -0.00041   1.93096
   A45        1.87329  -0.00000   0.00000  -0.00015  -0.00015   1.87314
   A46        1.91438  -0.00010   0.00000  -0.00087  -0.00087   1.91352
   A47        2.11816   0.00011   0.00000   0.00120   0.00120   2.11936
   A48        1.85508  -0.00002   0.00000  -0.00013  -0.00013   1.85496
    D1       -2.09448  -0.00001   0.00000   0.00016   0.00016  -2.09433
    D2        0.87783  -0.00004   0.00000  -0.00337  -0.00337   0.87447
    D3        0.01426  -0.00001   0.00000  -0.00054  -0.00054   0.01372
    D4        2.98658  -0.00005   0.00000  -0.00407  -0.00407   2.98251
    D5        2.02850  -0.00003   0.00000  -0.00093  -0.00093   2.02757
    D6       -1.28237  -0.00006   0.00000  -0.00445  -0.00445  -1.28682
    D7        0.30868   0.00000   0.00000   0.00311   0.00311   0.31179
    D8       -1.87809  -0.00001   0.00000   0.00275   0.00275  -1.87534
    D9        2.41813  -0.00001   0.00000   0.00289   0.00289   2.42102
   D10       -1.74068   0.00002   0.00000   0.00385   0.00385  -1.73683
   D11        2.35573   0.00001   0.00000   0.00350   0.00350   2.35922
   D12        0.36876   0.00001   0.00000   0.00364   0.00364   0.37240
   D13        2.48405   0.00003   0.00000   0.00414   0.00414   2.48819
   D14        0.29728   0.00001   0.00000   0.00378   0.00378   0.30106
   D15       -1.68969   0.00001   0.00000   0.00392   0.00392  -1.68576
   D16       -1.81509   0.00002   0.00000   0.00124   0.00124  -1.81385
   D17        0.35846  -0.00001   0.00000   0.00122   0.00123   0.35969
   D18        1.15958  -0.00005   0.00000  -0.00237  -0.00237   1.15721
   D19       -2.95005  -0.00008   0.00000  -0.00238  -0.00238  -2.95244
   D20        0.85048   0.00001   0.00000   0.00024   0.00024   0.85072
   D21       -1.26655   0.00001   0.00000  -0.00011  -0.00011  -1.26666
   D22        2.92940   0.00002   0.00000  -0.00023  -0.00023   2.92917
   D23       -1.26002  -0.00004   0.00000  -0.00031  -0.00031  -1.26034
   D24        2.90614  -0.00004   0.00000  -0.00066  -0.00066   2.90548
   D25        0.81890  -0.00003   0.00000  -0.00078  -0.00078   0.81811
   D26        2.97698   0.00002   0.00000   0.00026   0.00026   2.97724
   D27        0.85995   0.00002   0.00000  -0.00008  -0.00008   0.85987
   D28       -1.22729   0.00003   0.00000  -0.00020  -0.00020  -1.22749
   D29        1.60457   0.00006   0.00000   0.00143   0.00143   1.60600
   D30       -0.71454   0.00001   0.00000   0.00061   0.00061  -0.71393
   D31       -0.57242   0.00005   0.00000   0.00125   0.00125  -0.57117
   D32       -2.89153  -0.00000   0.00000   0.00043   0.00043  -2.89110
   D33       -2.63880   0.00003   0.00000   0.00107   0.00107  -2.63772
   D34        1.32528  -0.00003   0.00000   0.00026   0.00026   1.32553
   D35        1.36749  -0.00005   0.00000  -0.00181  -0.00181   1.36568
   D36       -2.82635  -0.00002   0.00000  -0.00169  -0.00169  -2.82805
   D37       -0.83557  -0.00004   0.00000  -0.00176  -0.00176  -0.83733
   D38       -2.77840  -0.00001   0.00000  -0.00120  -0.00120  -2.77960
   D39       -0.68906   0.00002   0.00000  -0.00109  -0.00109  -0.69015
   D40        1.30172   0.00000   0.00000  -0.00115  -0.00115   1.30056
   D41       -0.58062  -0.00001   0.00000  -0.00177  -0.00177  -0.58240
   D42        1.50872   0.00002   0.00000  -0.00166  -0.00166   1.50706
   D43       -2.78369   0.00000   0.00000  -0.00173  -0.00173  -2.78541
   D44        1.45354   0.00002   0.00000   0.00116   0.00116   1.45470
   D45       -2.72655   0.00003   0.00000   0.00139   0.00139  -2.72515
   D46       -0.60412   0.00002   0.00000   0.00077   0.00077  -0.60335
   D47       -2.78066   0.00001   0.00000   0.00127   0.00127  -2.77939
   D48       -0.67756   0.00002   0.00000   0.00150   0.00150  -0.67606
   D49        1.44486   0.00001   0.00000   0.00088   0.00088   1.44575
   D50       -0.61541  -0.00000   0.00000   0.00068   0.00068  -0.61473
   D51        1.48769   0.00001   0.00000   0.00091   0.00091   1.48861
   D52       -2.67307   0.00000   0.00000   0.00029   0.00029  -2.67277
   D53       -1.18794   0.00002   0.00000  -0.00037  -0.00037  -1.18831
   D54        1.00869  -0.00000   0.00000  -0.00034  -0.00034   1.00835
   D55        2.98191   0.00002   0.00000  -0.00025  -0.00025   2.98166
   D56        2.99737   0.00002   0.00000  -0.00026  -0.00026   2.99711
   D57       -1.08918  -0.00001   0.00000  -0.00023  -0.00023  -1.08942
   D58        0.88404   0.00001   0.00000  -0.00014  -0.00014   0.88390
   D59        1.01155   0.00001   0.00000  -0.00052  -0.00052   1.01103
   D60       -3.07500  -0.00002   0.00000  -0.00050  -0.00050  -3.07550
   D61       -1.10178  -0.00000   0.00000  -0.00041  -0.00041  -1.10219
   D62        0.19495   0.00000   0.00000  -0.00037  -0.00037   0.19458
   D63        2.23810   0.00003   0.00000  -0.00018  -0.00018   2.23792
   D64       -1.92795   0.00003   0.00000  -0.00029  -0.00029  -1.92824
   D65       -1.85998  -0.00003   0.00000  -0.00111  -0.00111  -1.86109
   D66        0.18317  -0.00001   0.00000  -0.00092  -0.00092   0.18225
   D67        2.30031  -0.00001   0.00000  -0.00103  -0.00103   2.29928
   D68        2.31921  -0.00001   0.00000  -0.00081  -0.00081   2.31841
   D69       -1.92082   0.00001   0.00000  -0.00062  -0.00062  -1.92144
   D70        0.19632   0.00001   0.00000  -0.00072  -0.00072   0.19559
   D71       -1.87862   0.00007   0.00000   0.00027   0.00027  -1.87835
   D72        0.32212  -0.00001   0.00000  -0.00012  -0.00012   0.32200
   D73        2.32060   0.00005   0.00000   0.00022   0.00022   2.32081
   D74       -1.76185  -0.00003   0.00000  -0.00017  -0.00017  -1.76202
   D75        0.27605   0.00007   0.00000   0.00060   0.00061   0.27666
   D76        2.47679  -0.00000   0.00000   0.00022   0.00022   2.47701
         Item               Value     Threshold  Converged?
 Maximum Force            0.000236     0.000450     YES
 RMS     Force            0.000057     0.000300     YES
 Maximum Displacement     0.008652     0.001800     NO 
 RMS     Displacement     0.001544     0.001200     NO 
 Predicted change in Energy=-1.743338D-06
 GradGradGradGradGradGradGradGradGradGradGradGradGradGradGradGradGradGrad

                          Input orientation:                          
 ---------------------------------------------------------------------
 Center     Atomic      Atomic             Coordinates (Angstroms)
 Number     Number       Type             X           Y           Z
 ---------------------------------------------------------------------
      1          6           0       -0.415065    1.868512    1.071544
      2          6           0       -1.232745    0.641399    0.690920
      3          6           0       -0.347708   -0.941387   -0.799881
      4          6           0        1.034673   -0.339542   -1.086496
      5          6           0        0.944163    1.216828   -1.146220
      6          6           0        0.872244    2.006450    0.192588
      7          1           0       -1.084291    2.718355    0.923876
      8          1           0       -0.146219    1.860894    2.133358
      9          1           0        1.441352   -0.713530   -2.031441
     10          1           0        1.845091    1.571313   -1.660363
     11          1           0        0.100511    1.504087   -1.788681
     12          1           0        1.754930    1.759027    0.790529
     13          1           0        0.981867    3.066774   -0.058828
     14          1           0       -1.171855   -0.576030   -1.411371
     15          8           0       -2.383683    0.738658    0.301319
     16          6           0        1.825635   -0.839413    0.139261
     17          1           0        2.183446   -1.857824   -0.028785
     18          1           0        2.694221   -0.215253    0.366541
     19          6           0        0.756711   -0.815204    1.272672
     20          7           0       -0.549175   -0.598163    0.598099
     21          1           0        0.708955   -1.773371    1.796168
     22          1           0        0.934715   -0.043866    2.022787
     23          9           0       -0.303873   -2.335878   -0.959463
 ---------------------------------------------------------------------
                    Distance matrix (angstroms):
                    1          2          3          4          5
     1  C    0.000000
     2  C    1.522918   0.000000
     3  C    3.376729   2.347550   0.000000
     4  C    3.410920   3.043458   1.534713   0.000000
     5  C    2.681542   2.906050   2.539049   1.560143   0.000000
     6  C    1.564849   2.557865   3.341110   2.676960   1.555982
     7  H    1.091744   2.095245   4.111886   4.228751   3.264124
     8  H    1.095347   2.179067   4.061683   4.074786   3.515591
     9  H    4.443167   4.049429   2.183894   1.094612   2.181076
    10  H    3.558081   3.983258   3.444191   2.153477   1.096209
    11  H    2.929080   2.944524   2.675625   2.182817   1.098646
    12  H    2.190852   3.191428   3.773954   2.906197   2.168483
    13  H    2.159859   3.368838   4.287456   3.558353   2.146193
    14  H    3.565583   2.430118   1.089323   2.242819   2.786069
    15  O    2.396930   1.218978   2.860138   3.843658   3.660406
    16  C    3.636309   3.442502   2.369769   1.542068   2.580229
    17  H    4.674244   4.293536   2.800211   2.177984   3.498281
    18  H    3.808774   4.032385   3.337835   2.209267   2.720663
    19  C    2.935275   2.533390   2.351838   2.422641   3.164701
    20  N    2.515277   1.418590   1.453527   2.326655   2.926927
    21  H    3.879666   3.289815   2.923731   3.236002   4.201697
    22  H    2.526649   2.634642   3.227632   3.124909   3.410578
    23  F    4.670572   3.528562   1.404277   2.406907   3.770171
                    6          7          8          9         10
     6  C    0.000000
     7  H    2.206722   0.000000
     8  H    2.196598   1.754442   0.000000
     9  H    3.559280   5.185615   5.147192   0.000000
    10  H    2.137569   4.071274   4.294355   2.349726   0.000000
    11  H    2.184804   3.199401   3.945957   2.602808   1.750584
    12  H    1.094480   2.999879   2.329793   3.765021   2.459722
    13  H    1.095223   2.314327   2.744522   4.288709   2.355095
    14  H    3.663363   4.039062   4.422175   2.689283   3.711475
    15  O    3.495737   2.448509   3.101939   4.709725   4.735403
    16  C    3.001789   4.662725   3.893107   2.208046   3.008426
    17  H    4.086670   5.703252   4.891938   2.422962   3.812546
    18  H    2.878511   4.815998   3.937020   2.751050   2.832168
    19  C    3.023518   3.999624   2.952552   3.375831   3.934810
    20  N    2.994809   3.375170   2.926834   3.299998   3.942054
    21  H    4.109158   4.914492   3.748720   4.038596   4.942198
    22  H    2.749059   3.593586   2.192887   4.140277   4.123491
    23  F    4.643951   5.449889   5.215677   2.612845   4.513917
                   11         12         13         14         15
    11  H    0.000000
    12  H    3.074804   0.000000
    13  H    2.492222   1.740470   0.000000
    14  H    2.467421   4.343608   4.442737   0.000000
    15  O    3.335446   4.290524   4.108133   2.475932   0.000000
    16  C    3.490703   2.679746   4.001185   3.385082   4.498325
    17  H    4.328775   3.733164   5.069158   3.848712   5.263968
    18  H    3.785293   2.227064   3.726231   4.270559   5.167137
    19  C    3.896357   2.802779   4.110151   3.313708   3.635945
    20  N    3.246270   3.301860   4.025843   2.103852   2.289234
    21  H    4.895210   3.818797   5.190616   3.906325   4.255500
    22  H    4.197540   2.332731   3.743184   4.063777   3.819367
    23  F    3.949235   4.906056   5.626093   2.013623   3.920198
                   16         17         18         19         20
    16  C    0.000000
    17  H    1.092442   0.000000
    18  H    1.093468   1.764997   0.000000
    19  C    1.558141   2.194634   2.221476   0.000000
    20  N    2.430732   3.073588   3.274119   1.485764   0.000000
    21  H    2.205582   2.347703   2.900490   1.092892   2.097468
    22  H    2.230314   3.009770   2.422474   1.090560   2.130472
    23  F    2.825138   2.698417   3.904344   2.901675   2.346450
                   21         22         23
    21  H    0.000000
    22  H    1.758839   0.000000
    23  F    2.989270   3.959954   0.000000
 Symmetry turned off by external request.
 Stoichiometry    C8H12FNO
 Framework group  C1[X(C8H12FNO)]
 Deg. of freedom    63
 Full point group                 C1      NOp   1
 Rotational constants (GHZ):           1.5656609           1.1884818           0.9310626
 Standard basis: 6-31+G(d,p) (6D, 7F)
   269 basis functions,   436 primitive gaussians,   269 cartesian basis functions
    42 alpha electrons       42 beta electrons
       nuclear repulsion energy       687.4232131924 Hartrees.
 NAtoms=   23 NActive=   23 NUniq=   23 SFac= 1.00D+00 NAtFMM=   60 NAOKFM=F Big=F
 Integral buffers will be    131072 words long.
 Raffenetti 2 integral format.
 Two-electron integral symmetry is turned off.
 One-electron integrals computed using PRISM.
 NBasis=   269 RedAO= T EigKep=  1.10D-05  NBF=   269
 NBsUse=   269 1.00D-06 EigRej= -1.00D+00 NBFU=   269
 Initial guess from the checkpoint file:  "/scratch/Grace/g03/Gau-75714.chk"
 B after Tr=    -0.000124   -0.000108    0.000441
         Rot=    1.000000   -0.000020   -0.000097   -0.000000 Ang=  -0.01 deg.
 Requested convergence on RMS density matrix=1.00D-08 within 128 cycles.
 Requested convergence on MAX density matrix=1.00D-06.
 Requested convergence on             energy=1.00D-06.
 No special actions if energy rises.
 SCF Done:  E(RB3LYP) =  -541.919153853     A.U. after    8 cycles
            NFock=  8  Conv=0.97D-08     -V/T= 2.0092
 Calling FoFJK, ICntrl=      2127 FMM=F ISym2X=0 I1Cent= 0 IOpClX= 0 NMat=1 NMatS=1 NMatT=0.
 -------------------------------------------------------------------
 Center     Atomic                   Forces (Hartrees/Bohr)
 Number     Number              X              Y              Z
 -------------------------------------------------------------------
      1        6           0.000083289   -0.000010406    0.000072816
      2        6           0.000098234    0.000021590   -0.000351144
      3        6          -0.000052371   -0.000056901   -0.000019837
      4        6          -0.000026208    0.000043276    0.000011437
      5        6          -0.000011162    0.000005555   -0.000006843
      6        6          -0.000001915   -0.000001453    0.000032301
      7        1          -0.000024645   -0.000009730   -0.000013804
      8        1           0.000037754    0.000025339    0.000019779
      9        1          -0.000023880   -0.000005311   -0.000004339
     10        1           0.000004107   -0.000004337    0.000004483
     11        1          -0.000004607    0.000010410    0.000004508
     12        1          -0.000006170   -0.000008249   -0.000005839
     13        1          -0.000006327    0.000010477    0.000019746
     14        1           0.000018181    0.000001619   -0.000004907
     15        8          -0.000053075   -0.000036934    0.000145241
     16        6          -0.000024338   -0.000031309    0.000005793
     17        1           0.000005224    0.000000765    0.000016615
     18        1           0.000001716    0.000009398   -0.000002713
     19        6          -0.000054456   -0.000000784   -0.000039660
     20        7           0.000039189    0.000022167    0.000085874
     21        1          -0.000003121   -0.000001710    0.000014629
     22        1          -0.000006750    0.000042752    0.000042147
     23        9           0.000011332   -0.000026224   -0.000026284
 -------------------------------------------------------------------
 Cartesian Forces:  Max     0.000351144 RMS     0.000054891

 GradGradGradGradGradGradGradGradGradGradGradGradGradGradGradGradGradGrad
 Berny optimization.
 Using GEDIIS/GDIIS optimizer.
 FormGI is forming the generalized inverse of G from B-inverse, IUseBI=4.
 Internal  Forces:  Max     0.000086941 RMS     0.000024790
 Search for a local minimum.
 Step number   2 out of a maximum of  138
 All quantities printed in internal units (Hartrees-Bohrs-Radians)
 Mixed Optimization -- En-DIIS/RFO-DIIS
 Swapping is turned off.
 Update second derivatives using D2CorX and points    1    2
 DE= -1.13D-06 DEPred=-1.74D-06 R= 6.49D-01
 TightC=F SS=  1.41D+00  RLast= 1.52D-02 DXNew= 5.0454D-01 4.5674D-02
 Trust test= 6.49D-01 RLast= 1.52D-02 DXMaxT set to 3.00D-01
 ITU=  1  0
     Eigenvalues ---    0.00303   0.00455   0.00597   0.01328   0.01501
     Eigenvalues ---    0.02229   0.02534   0.02697   0.03250   0.03612
     Eigenvalues ---    0.03767   0.04096   0.04692   0.04748   0.04796
     Eigenvalues ---    0.05040   0.05212   0.05649   0.05739   0.06192
     Eigenvalues ---    0.06645   0.07522   0.08075   0.08373   0.08567
     Eigenvalues ---    0.08862   0.09253   0.09266   0.09371   0.09481
     Eigenvalues ---    0.10350   0.10982   0.12167   0.12850   0.16291
     Eigenvalues ---    0.17955   0.19040   0.21607   0.24125   0.24645
     Eigenvalues ---    0.25413   0.26029   0.26522   0.26810   0.27351
     Eigenvalues ---    0.29525   0.31290   0.33542   0.33872   0.34141
     Eigenvalues ---    0.34211   0.34234   0.34290   0.34368   0.34467
     Eigenvalues ---    0.34485   0.34593   0.34626   0.34830   0.35148
     Eigenvalues ---    0.40701   0.45000   0.95831
 En-DIIS/RFO-DIIS/Sim-DIIS IScMMF=       -3 using points:     2    1
 RFO step:  Lambda=-1.76571317D-06.
 DidBck=F Rises=F RFO-DIIS coefs:    1.05962   -0.05962
 Iteration  1 RMS(Cart)=  0.00066471 RMS(Int)=  0.00000134
 Iteration  2 RMS(Cart)=  0.00000118 RMS(Int)=  0.00000063
 Iteration  3 RMS(Cart)=  0.00000000 RMS(Int)=  0.00000063
 Variable       Old X    -DE/DX   Delta X   Delta X   Delta X     New X
                                 (Linear)    (Quad)   (Total)
    R1        2.87790   0.00005   0.00000   0.00006   0.00006   2.87796
    R2        2.95714  -0.00008  -0.00000  -0.00026  -0.00027   2.95687
    R3        2.06310   0.00001   0.00002   0.00014   0.00016   2.06326
    R4        2.06991   0.00003  -0.00002  -0.00005  -0.00007   2.06983
    R5        2.30354   0.00000   0.00000   0.00002   0.00002   2.30356
    R6        2.68075  -0.00006   0.00002  -0.00003  -0.00001   2.68074
    R7        2.90019   0.00000   0.00000   0.00005   0.00005   2.90024
    R8        2.05852  -0.00001  -0.00002  -0.00016  -0.00018   2.05834
    R9        2.74677   0.00002  -0.00002  -0.00004  -0.00005   2.74672
   R10        2.65370   0.00003  -0.00002  -0.00006  -0.00008   2.65362
   R11        2.94824   0.00001  -0.00004  -0.00007  -0.00010   2.94814
   R12        2.06852  -0.00000   0.00000   0.00001   0.00002   2.06853
   R13        2.91409   0.00002  -0.00002  -0.00005  -0.00007   2.91401
   R14        2.94038  -0.00000  -0.00000   0.00000  -0.00000   2.94038
   R15        2.07153   0.00000  -0.00003  -0.00020  -0.00024   2.07130
   R16        2.07614   0.00000  -0.00002  -0.00013  -0.00016   2.07598
   R17        2.06827  -0.00001  -0.00004  -0.00026  -0.00030   2.06797
   R18        2.06967   0.00001  -0.00000  -0.00001  -0.00001   2.06966
   R19        2.06442  -0.00000  -0.00002  -0.00014  -0.00016   2.06425
   R20        2.06636   0.00001  -0.00003  -0.00014  -0.00016   2.06619
   R21        2.94446  -0.00001  -0.00003  -0.00025  -0.00028   2.94418
   R22        2.80769  -0.00007  -0.00003  -0.00033  -0.00036   2.80733
   R23        2.06527   0.00001  -0.00001  -0.00004  -0.00004   2.06522
   R24        2.06086   0.00006  -0.00000   0.00011   0.00011   2.06097
    A1        1.95232   0.00000   0.00005  -0.00016  -0.00011   1.95221
    A2        1.83827  -0.00002  -0.00004  -0.00042  -0.00046   1.83782
    A3        1.94815   0.00003   0.00001   0.00047   0.00048   1.94862
    A4        1.93872   0.00002  -0.00003  -0.00003  -0.00007   1.93865
    A5        1.92111  -0.00003   0.00002   0.00003   0.00005   1.92116
    A6        1.86188   0.00001  -0.00000   0.00011   0.00010   1.86198
    A7        2.12062   0.00004  -0.00006   0.00018   0.00012   2.12074
    A8        2.05072  -0.00002   0.00001   0.00004   0.00005   2.05076
    A9        2.09876   0.00000   0.00002   0.00059   0.00061   2.09936
   A10        2.03209  -0.00001  -0.00001  -0.00018  -0.00019   2.03190
   A11        1.78428  -0.00005   0.00002  -0.00016  -0.00014   1.78414
   A12        1.91780   0.00000  -0.00001  -0.00008  -0.00009   1.91771
   A13        1.93460   0.00002   0.00002   0.00022   0.00024   1.93484
   A14        1.86804  -0.00000   0.00002   0.00015   0.00017   1.86821
   A15        1.92635   0.00004  -0.00003   0.00003   0.00000   1.92635
   A16        1.92421   0.00005   0.00001   0.00041   0.00042   1.92463
   A17        1.94109  -0.00003   0.00002  -0.00005  -0.00002   1.94106
   A18        1.75834   0.00001   0.00001  -0.00005  -0.00005   1.75829
   A19        1.90640   0.00000  -0.00000  -0.00002  -0.00003   1.90638
   A20        1.96444  -0.00005  -0.00003  -0.00031  -0.00034   1.96410
   A21        1.96587   0.00003  -0.00001   0.00004   0.00003   1.96590
   A22        2.06689  -0.00002   0.00001  -0.00000   0.00001   2.06689
   A23        1.86802   0.00001  -0.00001  -0.00015  -0.00016   1.86786
   A24        1.90474   0.00001  -0.00001   0.00005   0.00004   1.90477
   A25        1.85192  -0.00001   0.00001  -0.00000   0.00001   1.85193
   A26        1.91238   0.00001   0.00000   0.00002   0.00002   1.91240
   A27        1.84656  -0.00000   0.00001   0.00009   0.00010   1.84666
   A28        2.06756  -0.00001  -0.00000  -0.00032  -0.00032   2.06723
   A29        1.91416  -0.00000  -0.00001  -0.00010  -0.00011   1.91405
   A30        1.87195  -0.00001   0.00000   0.00004   0.00004   1.87199
   A31        1.89449   0.00000   0.00003   0.00012   0.00014   1.89464
   A32        1.86415   0.00002  -0.00001   0.00024   0.00023   1.86438
   A33        1.83750  -0.00000  -0.00000   0.00007   0.00007   1.83757
   A34        1.92614   0.00002   0.00003   0.00040   0.00044   1.92658
   A35        1.96885  -0.00001  -0.00001  -0.00016  -0.00017   1.96867
   A36        1.79393  -0.00001   0.00001  -0.00003  -0.00003   1.79391
   A37        1.87961  -0.00000  -0.00000  -0.00000  -0.00001   1.87960
   A38        1.92952  -0.00000   0.00000   0.00004   0.00004   1.92956
   A39        1.96587   0.00000  -0.00003  -0.00022  -0.00025   1.96562
   A40        1.84936  -0.00001   0.00002   0.00005   0.00008   1.84944
   A41        1.94420   0.00000  -0.00001   0.00007   0.00006   1.94426
   A42        1.98160   0.00002   0.00002   0.00015   0.00017   1.98177
   A43        1.88299   0.00000   0.00000   0.00007   0.00007   1.88305
   A44        1.93096  -0.00001  -0.00002  -0.00027  -0.00030   1.93066
   A45        1.87314  -0.00001  -0.00001  -0.00007  -0.00008   1.87306
   A46        1.91352   0.00000  -0.00005  -0.00049  -0.00054   1.91298
   A47        2.11936  -0.00005   0.00007  -0.00004   0.00003   2.11939
   A48        1.85496   0.00005  -0.00001   0.00005   0.00005   1.85501
    D1       -2.09433  -0.00006   0.00001  -0.00459  -0.00458  -2.09891
    D2        0.87447   0.00005  -0.00020   0.00079   0.00059   0.87506
    D3        0.01372  -0.00006  -0.00003  -0.00498  -0.00501   0.00871
    D4        2.98251   0.00006  -0.00024   0.00040   0.00016   2.98267
    D5        2.02757  -0.00005  -0.00006  -0.00486  -0.00492   2.02265
    D6       -1.28682   0.00006  -0.00027   0.00052   0.00026  -1.28656
    D7        0.31179  -0.00001   0.00019   0.00002   0.00021   0.31200
    D8       -1.87534  -0.00001   0.00016   0.00021   0.00037  -1.87497
    D9        2.42102  -0.00000   0.00017   0.00015   0.00033   2.42135
   D10       -1.73683   0.00001   0.00023   0.00067   0.00089  -1.73593
   D11        2.35922   0.00001   0.00021   0.00085   0.00106   2.36028
   D12        0.37240   0.00002   0.00022   0.00080   0.00101   0.37342
   D13        2.48819   0.00001   0.00025   0.00053   0.00078   2.48897
   D14        0.30106   0.00001   0.00023   0.00072   0.00095   0.30200
   D15       -1.68576   0.00002   0.00023   0.00067   0.00090  -1.68486
   D16       -1.81385  -0.00006   0.00007  -0.00084  -0.00076  -1.81462
   D17        0.35969  -0.00003   0.00007  -0.00127  -0.00120   0.35848
   D18        1.15721   0.00006  -0.00014   0.00444   0.00429   1.16150
   D19       -2.95244   0.00009  -0.00014   0.00400   0.00386  -2.94858
   D20        0.85072   0.00002   0.00001   0.00035   0.00037   0.85108
   D21       -1.26666   0.00000  -0.00001   0.00014   0.00013  -1.26652
   D22        2.92917  -0.00002  -0.00001   0.00015   0.00013   2.92930
   D23       -1.26034   0.00003  -0.00002   0.00029   0.00027  -1.26006
   D24        2.90548   0.00001  -0.00004   0.00008   0.00004   2.90552
   D25        0.81811  -0.00001  -0.00005   0.00008   0.00004   0.81815
   D26        2.97724   0.00001   0.00002   0.00036   0.00038   2.97762
   D27        0.85987  -0.00001  -0.00000   0.00015   0.00015   0.86002
   D28       -1.22749  -0.00003  -0.00001   0.00016   0.00015  -1.22735
   D29        1.60600  -0.00003   0.00009  -0.00046  -0.00038   1.60562
   D30       -0.71393  -0.00000   0.00004  -0.00009  -0.00006  -0.71399
   D31       -0.57117  -0.00000   0.00007  -0.00027  -0.00019  -0.57136
   D32       -2.89110   0.00002   0.00003   0.00010   0.00013  -2.89098
   D33       -2.63772  -0.00003   0.00006  -0.00062  -0.00055  -2.63828
   D34        1.32553  -0.00001   0.00002  -0.00025  -0.00023   1.32530
   D35        1.36568   0.00003  -0.00011   0.00001  -0.00010   1.36558
   D36       -2.82805   0.00001  -0.00010  -0.00012  -0.00022  -2.82827
   D37       -0.83733   0.00002  -0.00010  -0.00007  -0.00017  -0.83751
   D38       -2.77960   0.00002  -0.00007   0.00019   0.00012  -2.77948
   D39       -0.69015  -0.00000  -0.00006   0.00007   0.00000  -0.69015
   D40        1.30056   0.00001  -0.00007   0.00012   0.00005   1.30061
   D41       -0.58240   0.00002  -0.00011   0.00000  -0.00011  -0.58250
   D42        1.50706   0.00000  -0.00010  -0.00012  -0.00022   1.50684
   D43       -2.78541   0.00001  -0.00010  -0.00007  -0.00018  -2.78559
   D44        1.45470  -0.00002   0.00007   0.00009   0.00016   1.45485
   D45       -2.72515  -0.00002   0.00008   0.00025   0.00034  -2.72482
   D46       -0.60335  -0.00002   0.00005  -0.00012  -0.00008  -0.60342
   D47       -2.77939   0.00001   0.00008   0.00040   0.00048  -2.77892
   D48       -0.67606   0.00002   0.00009   0.00057   0.00066  -0.67540
   D49        1.44575   0.00001   0.00005   0.00019   0.00024   1.44599
   D50       -0.61473   0.00000   0.00004   0.00016   0.00020  -0.61453
   D51        1.48861   0.00001   0.00005   0.00032   0.00038   1.48898
   D52       -2.67277   0.00000   0.00002  -0.00005  -0.00003  -2.67281
   D53       -1.18831   0.00000  -0.00002  -0.00015  -0.00017  -1.18848
   D54        1.00835  -0.00001  -0.00002  -0.00043  -0.00045   1.00790
   D55        2.98166   0.00000  -0.00001  -0.00018  -0.00019   2.98147
   D56        2.99711   0.00001  -0.00002   0.00005   0.00004   2.99715
   D57       -1.08942   0.00000  -0.00001  -0.00023  -0.00025  -1.08966
   D58        0.88390   0.00001  -0.00001   0.00002   0.00001   0.88391
   D59        1.01103   0.00001  -0.00003  -0.00006  -0.00009   1.01094
   D60       -3.07550   0.00000  -0.00003  -0.00034  -0.00037  -3.07587
   D61       -1.10219   0.00001  -0.00002  -0.00009  -0.00011  -1.10230
   D62        0.19458   0.00001  -0.00002   0.00006   0.00004   0.19462
   D63        2.23792   0.00001  -0.00001   0.00021   0.00020   2.23811
   D64       -1.92824   0.00002  -0.00002   0.00028   0.00026  -1.92798
   D65       -1.86109  -0.00001  -0.00007  -0.00040  -0.00047  -1.86156
   D66        0.18225  -0.00001  -0.00005  -0.00026  -0.00031   0.18194
   D67        2.29928  -0.00000  -0.00006  -0.00019  -0.00025   2.29903
   D68        2.31841  -0.00000  -0.00005  -0.00027  -0.00032   2.31809
   D69       -1.92144  -0.00000  -0.00004  -0.00012  -0.00016  -1.92160
   D70        0.19559   0.00000  -0.00004  -0.00006  -0.00010   0.19549
   D71       -1.87835  -0.00001   0.00002   0.00073   0.00075  -1.87760
   D72        0.32200  -0.00000  -0.00001   0.00006   0.00005   0.32205
   D73        2.32081  -0.00001   0.00001   0.00059   0.00060   2.32141
   D74       -1.76202  -0.00000  -0.00001  -0.00009  -0.00010  -1.76212
   D75        0.27666  -0.00000   0.00004   0.00079   0.00082   0.27748
   D76        2.47701   0.00001   0.00001   0.00011   0.00013   2.47713
         Item               Value     Threshold  Converged?
 Maximum Force            0.000087     0.000450     YES
 RMS     Force            0.000025     0.000300     YES
 Maximum Displacement     0.005701     0.001800     NO 
 RMS     Displacement     0.000665     0.001200     YES
 Predicted change in Energy=-8.837856D-07
 GradGradGradGradGradGradGradGradGradGradGradGradGradGradGradGradGradGrad

                          Input orientation:                          
 ---------------------------------------------------------------------
 Center     Atomic      Atomic             Coordinates (Angstroms)
 Number     Number       Type             X           Y           Z
 ---------------------------------------------------------------------
      1          6           0       -0.414896    1.868466    1.071145
      2          6           0       -1.232509    0.641444    0.689949
      3          6           0       -0.347816   -0.941608   -0.800027
      4          6           0        1.034474   -0.339489   -1.086656
      5          6           0        0.944381    1.216860   -1.146152
      6          6           0        0.872644    2.006311    0.192766
      7          1           0       -1.084275    2.718172    0.922741
      8          1           0       -0.146558    1.861276    2.133051
      9          1           0        1.441194   -0.713411   -2.031620
     10          1           0        1.845426    1.570980   -1.660076
     11          1           0        0.100936    1.504455   -1.788591
     12          1           0        1.754840    1.758345    0.790913
     13          1           0        0.982731    3.066680   -0.058229
     14          1           0       -1.171813   -0.576403   -1.411641
[...]
 93,-0.07199690,0.05003733,-0.00695571,0.00550671,-0.00601989,-0.000722
 01,0.00151905,-0.00075291,0.00003035,-0.00009891,0.00001196,0.00001204
 ,0.00000636,-0.00002141,-0.00000904,-0.00003384,0.00000304,-0.00016698
 ,0.00004609,0.00034971,0.00011907,0.00003161,0.00002027,0.00005056,-0.
 00024134,0.00021668,-0.00001123,0.00006255,0.00002127,0.00002199,-0.00
 004006,-0.00004485,-0.07463922,0.09773988,0.00037294,-0.00012150,-0.00
 023587,-0.00605528,0.00199259,-0.00341175,-0.11258899,0.04988493,-0.13
 968653,0.00704859,-0.00247502,0.00788995,-0.00006416,-0.00062131,0.000
 32087,-0.00002233,0.00009276,-0.00008656,-0.00000939,-0.00014254,-0.00
 001394,0.00001347,0.00004397,0.00006517,-0.00070925,-0.00033490,0.0000
 3127,0.00005404,-0.00015010,-0.00001250,-0.00020535,-0.00011067,0.0000
 3317,0.00010357,0.00001550,-0.00000884,0.00003045,0.00000561,0.0000216
 6,0.12806832,-0.05048718,0.15194578,-0.03874575,-0.01073432,-0.0206088
 6,-0.63580982,0.01921657,-0.19206623,-0.00723031,-0.00936870,-0.014764
 10,-0.00053998,0.00154351,0.00278811,-0.00024488,0.00094021,-0.0005716
 5,0.00184651,-0.00257236,-0.00284244,0.00049604,0.00027490,0.00116079,
 -0.00313077,-0.00333551,0.00029014,-0.00126319,-0.00029888,0.00044175,
 0.00013466,-0.00020834,0.00026276,0.00009626,-0.00029347,0.00078665,-0
 .00021914,0.00017713,0.00044011,-0.00118370,-0.00024370,0.00060780,-0.
 00038293,0.00059808,0.00200221,0.73384778,-0.02985598,0.00582167,-0.01
 535726,0.03125009,-0.09899834,0.00573402,0.00272458,0.00250665,0.00280
 053,0.00103678,-0.00168774,-0.00028536,-0.00000084,-0.00128173,0.00006
 450,-0.00071890,-0.00077094,-0.00303423,-0.00076870,0.00476269,0.00029
 232,-0.00457745,-0.00339920,-0.00150643,0.00070402,0.00048715,-0.00034
 443,-0.00007268,0.00039877,0.00025387,-0.00018267,0.00030198,-0.000080
 04,-0.00137108,-0.00022544,0.00064321,-0.00048339,-0.00002450,0.000424
 15,0.00102448,-0.00113499,0.00056480,-0.05850368,0.10625590,-0.0247310
 4,-0.00275173,0.01802601,-0.18911137,-0.00984305,-0.13591265,-0.003794
 84,-0.00405629,-0.01069582,-0.00075741,0.00004921,0.00311644,-0.000491
 36,0.00095048,-0.00202910,-0.00023734,-0.00533006,-0.00413566,0.000036
 65,-0.00016903,-0.00024157,0.00161027,0.00180090,-0.00004221,-0.000793
 46,-0.00012671,0.00022370,0.00035043,0.00005124,0.00050706,0.00063239,
 -0.00023538,0.00088188,-0.00095543,-0.00025283,0.00070327,-0.00185954,
 -0.00014707,0.00086625,0.00153945,-0.00084043,0.00289059,0.22735110,-0
 .00376789,0.10336721,-0.00057674,0.00033873,-0.00018540,-0.00361953,-0
 .00501102,0.00070728,-0.03710850,0.00819899,-0.02162972,-0.09641924,0.
 01497676,-0.03474331,-0.00337130,0.00614954,-0.00154206,0.00031665,0.0
 0051745,0.00013721,-0.00012137,-0.00004528,0.00013111,0.00005728,0.000
 22873,0.00003318,0.00822583,-0.00441475,0.00996417,0.00075336,-0.00069
 034,0.00055651,0.00030416,-0.00007581,-0.00031962,0.00007373,-0.000513
 52,-0.00066917,0.00001564,-0.00020183,-0.00024523,-0.00339551,-0.00216
 153,0.00264772,-0.00081829,0.00230988,-0.00066535,0.56336256,0.0006558
 3,-0.00019372,-0.00036141,0.00089267,-0.00145496,-0.00003267,-0.007497
 47,0.00792311,-0.01075255,0.01374427,-0.08710629,0.02092683,0.02192402
 ,-0.01307208,0.02454056,0.00028936,0.00031338,0.00017722,-0.00005384,-
 0.00001907,0.00018494,0.00011821,0.00022983,0.00012385,-0.00548254,0.0
 0239745,-0.00639688,-0.00023940,0.00045424,0.00002494,-0.00011193,-0.0
 0646068,0.00090007,0.00103117,-0.00181470,-0.00023073,0.00012889,0.000
 43515,0.00046871,-0.00222469,-0.00098683,0.00134576,-0.00041860,0.0003
 4104,0.00020828,0.01672448,0.59814692,0.00019803,-0.00021025,-0.000309
 65,-0.00043123,-0.00104770,-0.00138307,-0.01889333,-0.00191838,-0.0000
 3566,-0.03604721,0.02041843,-0.12883588,-0.00271666,0.00550063,-0.0005
 1003,0.00065487,-0.00083847,0.00087840,0.00000445,0.00003350,0.0000851
 1,0.00014905,-0.00009211,-0.00000397,-0.01666985,0.00871728,-0.0166914
 9,0.00026130,-0.00102143,0.00021898,0.00069678,-0.00163716,0.00098018,
 0.00007261,-0.00025686,0.00002722,0.00011783,-0.00023423,-0.00042091,0
 .00042468,-0.00059522,-0.00084522,-0.00047610,0.00060162,-0.00008370,0
 .03402920,0.04564807,0.38571830,0.00012036,-0.00005901,0.00004827,-0.0
 0014994,-0.00074957,-0.00005298,-0.00011674,0.00332503,0.00093626,-0.0
 0443608,0.01403672,0.00267316,-0.00131969,-0.00059687,-0.00201804,-0.0
 0027396,-0.00052056,-0.00022740,0.00006255,0.00004584,-0.00005536,-0.0
 0000216,-0.00007227,-0.00002375,0.00086142,-0.00045101,0.00016043,0.00
 002495,0.00022184,-0.00018638,0.00014437,0.00073252,-0.00013159,0.0002
 0173,0.00010399,0.00037869,0.00014131,-0.00000912,0.00008757,-0.000004
 07,-0.00019650,-0.00013712,-0.00029651,0.00036082,-0.00019447,-0.07670
 108,0.07788370,0.01218538,0.08121508,0.00003412,-0.00002014,0.00008793
 ,-0.00011764,-0.00020837,-0.00013555,-0.00005509,-0.00144580,-0.000169
 06,0.00210494,-0.00878084,-0.00133697,0.00156332,0.00054076,0.00140432
 ,-0.00027298,0.00027021,0.00017608,0.00006386,0.00004149,-0.00004495,-
 0.00000600,0.00001296,-0.00003689,-0.00024194,0.00072063,0.00025633,-0
 .00008197,0.00000930,-0.00003811,0.00000909,-0.00067400,0.00007480,0.0
 0014037,0.00017221,0.00025530,0.00011603,-0.00005455,0.00005538,0.0000
 6193,0.00009133,0.00002383,0.00010080,0.00009393,0.00005546,0.08085311
 ,-0.28583938,-0.03994593,-0.08618242,0.30602820,0.00016881,-0.00010645
 ,-0.00006066,-0.00010324,0.00086083,-0.00010012,0.00027129,0.00030268,
 0.00033557,-0.00769731,0.02757139,0.00368324,-0.00439189,0.00045202,-0
 .00374507,-0.00023255,-0.00044579,-0.00065435,0.00000452,-0.00005861,0
 .00006991,-0.00002593,0.00006348,0.00017272,0.00095184,0.00017034,0.00
 098482,0.00010122,-0.00007989,-0.00000065,-0.00020491,0.00182544,-0.00
 032314,0.00030469,-0.00007071,0.00018659,0.00007765,-0.00001397,0.0001
 5405,-0.00003246,-0.00002387,-0.00003764,0.00039260,-0.00035674,0.0002
 2099,0.01193883,-0.04009263,-0.05172559,-0.01540210,0.04056433,0.06053
 324,0.00021792,-0.00004177,0.00019281,0.00019587,-0.00245079,-0.000299
 99,-0.00195661,0.00190594,-0.00160341,-0.01078107,-0.00678980,-0.00170
 825,0.00078681,-0.00120608,-0.00004918,-0.00077522,-0.00002523,-0.0003
 9022,0.00017135,0.00009373,-0.00008888,-0.00001968,0.00003636,0.000007
 38,-0.00026054,0.00014980,-0.00046775,-0.00002785,0.00060049,-0.000294
 31,0.00024042,-0.00006048,0.00013015,0.00038818,0.00091619,0.00081480,
 0.00038604,-0.00009949,0.00022453,-0.00067910,-0.00054267,0.00023948,-
 0.00058867,0.00093318,-0.00009974,-0.21164715,-0.12162880,-0.04324396,
 0.00937547,0.00559518,0.00235269,0.22906379,0.00015516,-0.00003338,-0.
 00013503,0.00033826,0.00021926,0.00015140,0.00231114,-0.00215500,0.001
 77060,0.01010385,0.00734059,0.00159557,0.00046531,0.00004080,-0.000558
 55,0.00100723,-0.00065361,0.00015604,0.00002054,-0.00000389,0.00001708
 ,0.00002083,-0.00007531,0.00005845,-0.00032049,0.00001479,-0.00011375,
 -0.00021938,0.00024053,0.00002096,-0.00011810,0.00026202,-0.00017372,0
 .00076594,-0.00114541,-0.00025054,-0.00019329,0.00009160,0.00003583,0.
 00061520,0.00034794,-0.00028720,-0.00010371,-0.00016242,-0.00005386,-0
 .12458528,-0.13878240,-0.03338520,-0.02458161,-0.01681285,-0.00667638,
 0.13135944,0.14931304,0.00012364,-0.00004960,-0.00009372,0.00011165,0.
 00098917,-0.00003039,-0.00141649,0.00197015,-0.00718544,-0.02170439,-0
 .01579341,-0.00401081,0.00060622,-0.00123165,0.00157326,0.00052383,0.0
 0032788,0.00038300,0.00003575,0.00001743,-0.00001222,0.00000644,-0.000
 03471,-0.00000519,-0.00011306,-0.00008316,-0.00043978,0.00023939,0.000
 36478,-0.00029746,0.00027048,-0.00032794,-0.00009932,-0.00008784,-0.00
 007472,0.00037681,-0.00007043,0.00003312,0.00004308,-0.00107661,-0.000
 65866,0.00077470,0.00045137,-0.00039112,0.00039213,-0.04386978,-0.0327
 3556,-0.05635590,-0.00365621,-0.00267982,-0.00082472,0.04791103,0.0363
 3799,0.06157619,0.00110610,-0.00014078,0.00078741,-0.02124226,0.008366
 18,-0.00080597,-0.00284715,-0.00555512,-0.02088443,0.01115129,-0.00192
 219,0.00467470,-0.00130309,-0.00070555,-0.00060402,0.00197270,0.000195
 04,0.00011193,-0.00049813,-0.00123030,-0.00062648,-0.00032948,0.000359
 88,-0.00108257,-0.00356897,-0.00007202,-0.00099662,-0.00005911,-0.0001
 8298,0.00014288,-0.00030547,0.00081654,-0.00026055,-0.00072715,-0.0004
 1016,-0.00005680,-0.00065104,0.00004693,0.00002159,-0.00102722,-0.0008
 3121,0.00158952,0.00539519,0.00001710,-0.00011286,-0.10354791,0.001522
 30,0.03802207,-0.00593573,-0.00214187,0.00804516,-0.01200242,0.0024859
 6,0.01794759,0.36758744,0.00053120,-0.00178684,-0.00032793,0.02046139,
 0.00257725,0.01995314,-0.01232777,0.00684777,-0.00244013,-0.00804223,-
 0.00013811,0.00910492,0.00026146,0.00047110,0.00115921,-0.00076462,-0.
 00171004,0.00000563,-0.00001360,0.00066826,0.00031867,0.00028842,-0.00
 095319,0.00000019,0.00175498,-0.00005713,0.00074743,0.00005719,0.00035
 163,-0.00026800,0.00022987,-0.00016200,-0.00033938,-0.00021734,-0.0015
 0908,0.00089066,0.00026673,0.00015525,0.00010127,0.00130182,0.00062644
 ,-0.00249745,0.00541662,-0.00351418,-0.00296608,-0.00107682,-0.0814189
 5,-0.00086105,0.01873854,0.00233716,-0.02223869,-0.01059447,0.00013400
 ,0.01425561,0.01954434,0.62043134,0.00120462,-0.00005292,0.00194695,0.
 00111686,0.01549235,-0.00225792,-0.03174687,0.00071183,-0.03505453,0.0
 1013444,0.00193922,-0.03801715,0.00006700,0.00052690,0.00004724,0.0007
 1722,0.00109270,0.00053103,-0.00060044,-0.00085690,-0.00077767,0.00029
 830,0.00016374,-0.00124872,-0.00347395,0.00264431,-0.00261113,-0.00004
 006,-0.00035734,0.00007581,-0.00009593,-0.00047214,0.00015207,-0.00062
 528,0.00000552,0.00031411,-0.00045052,0.00003386,-0.00043989,0.0016512
 1,-0.00136616,-0.00444038,0.00476368,-0.00680828,0.00471101,0.03609082
 ,-0.00397495,-0.11618904,0.00359089,0.00097714,-0.00587777,-0.00514525
 ,0.00126315,0.00472308,0.02545216,0.02060737,0.57068919,0.00569383,-0.
 00596312,-0.00318061,-0.09391596,0.07351526,-0.01597212,-0.08892055,0.
 01051983,-0.01561333,-0.01834715,0.00501101,0.03130825,-0.00014795,0.0
 0220294,0.00054935,0.00058792,-0.00038650,0.00055791,-0.00070458,-0.00
 193494,-0.00119728,0.00027375,-0.00075665,0.00009961,-0.00664804,-0.00
 157688,0.00019378,0.00016631,-0.00027618,-0.00020574,0.00046919,-0.000
 77039,0.00024961,0.00017927,0.00024393,-0.00006997,0.00031535,-0.00011
 023,-0.00042426,0.00626703,-0.00373227,-0.02398635,-0.04984642,0.05428
 562,-0.00932043,-0.03845092,0.00408869,0.00545171,-0.00240787,-0.00017
 867,0.00090830,-0.00260097,0.00171796,0.00262906,-0.13431857,0.0100260
 4,-0.02723862,0.43518343,0.01243251,-0.02704571,-0.00924622,0.01459571
 ,-0.18296317,-0.04095221,0.03279040,-0.05252713,-0.01309661,0.00033643
 ,0.00538357,0.00081173,-0.00000761,-0.00041838,-0.00063379,0.00441153,
 0.00008886,-0.00197769,-0.00246120,-0.00394460,-0.00237168,-0.00075560
 ,-0.00280977,-0.00100069,0.00004739,0.00139372,0.00004227,-0.00024105,
 0.00102957,0.00048850,-0.00000559,0.00061423,-0.00020788,-0.00129102,-
 0.00013349,0.00009342,-0.00095532,0.00019520,0.00046552,-0.00229560,0.
 00335148,0.00568156,0.05570885,-0.00954465,0.02724882,0.00594535,0.002
 99434,0.00059748,-0.00012524,0.00027610,-0.00055915,0.00145735,-0.0002
 8764,-0.00059272,0.02554373,-0.09077679,-0.00612050,-0.16755954,0.3748
 8311,0.00874456,-0.01288071,0.01387010,-0.03029055,-0.04588314,-0.0871
 0477,0.02432271,0.01166818,-0.17588087,0.02583306,-0.00895726,-0.03892
 995,-0.00033560,-0.00213205,-0.00031864,-0.00014875,-0.00146133,-0.000
 87231,-0.00261993,-0.00366595,-0.00010933,0.00045036,0.00300703,-0.000
 14705,0.00775859,0.00303968,-0.00113197,-0.00018808,0.00039142,0.00042
 730,-0.00014566,-0.00002264,-0.00000612,-0.00037846,0.00010472,0.00012
 572,-0.00083148,0.00041481,0.00085879,0.00713937,-0.00116727,-0.021449
 14,-0.01162241,0.01928598,0.01575954,0.00771600,-0.00422648,0.00635464
 ,0.00104347,0.00038186,-0.00167399,0.00048231,0.00001129,-0.00052824,-
 0.05074376,-0.01265136,-0.10069076,0.05669689,0.07838117,0.41923561,0.
 00001042,-0.00001301,0.00057565,0.00117841,-0.00256212,-0.00560583,-0.
 00093447,0.00240501,0.00083287,-0.00335571,-0.00004289,0.00103589,0.00
 015970,0.00032594,0.00005972,-0.00041347,-0.00018087,-0.00002336,0.000
 07961,0.00001675,0.00000610,0.00005770,0.00028185,0.00007136,0.0006456
 4,-0.00017849,0.00044565,0.00005626,0.00007468,-0.00004339,0.00012114,
 -0.00019470,0.00006185,0.00018333,0.00006438,0.00007884,0.00014534,-0.
 00003879,0.00002416,-0.00006938,-0.00022846,-0.00028164,-0.00288819,0.
 00109875,0.00058862,-0.00096912,-0.01776679,0.01220953,0.00097514,-0.0
 0015978,-0.00036249,-0.00124082,-0.00044244,0.00152254,-0.04279548,-0.
 02073892,0.01030479,-0.01138930,0.03263264,-0.01832425,0.05910862,-0.0
 0020496,-0.00030657,-0.00020595,-0.00060518,0.00062943,0.00085266,0.00
 023395,-0.00085315,-0.00060703,0.00048551,0.00040804,-0.00089081,-0.00
 009497,-0.00006406,-0.00025230,-0.00010373,-0.00025742,-0.00025610,0.0
 0005658,0.00003845,0.00015519,-0.00008407,-0.00005413,0.00035929,-0.00
 010931,0.00003019,-0.00010060,-0.00002047,-0.00001036,0.00003615,-0.00
 001651,0.00008284,0.00004391,0.00030501,0.00001608,0.00008126,0.000117
 91,-0.00006073,0.00016952,-0.00003348,-0.00000322,0.00005158,0.0002539
 2,-0.00020237,-0.00002821,-0.00000351,0.00284879,-0.00328494,0.0001056
 2,0.00160778,-0.00021045,0.00023088,0.00040201,0.00040985,-0.01578017,
 -0.26058202,0.10921153,0.00601441,0.00026340,0.00222017,0.01133013,0.2
 7606723,-0.00006302,-0.00030805,-0.00016250,0.00073193,-0.00187361,-0.
 00209077,-0.00058286,0.00297084,0.00002787,0.00232978,-0.00037052,-0.0
 0193930,-0.00003709,-0.00038888,0.00002740,-0.00011891,-0.00017919,-0.
 00016896,0.00008363,0.00004386,0.00020542,-0.00001218,-0.00000192,0.00
 039011,-0.00047940,0.00026084,-0.00049614,0.00002167,-0.00005242,0.000
 05743,-0.00007400,0.00006366,0.00010325,0.00032543,-0.00000332,0.00001
 980,0.00012207,-0.00003446,0.00014220,-0.00017797,-0.00035597,-0.00016
 742,-0.00087773,0.00056353,0.00008191,0.00421022,0.01854345,-0.0106001
 1,-0.00035451,0.00002797,0.00119870,0.00112889,0.00028544,-0.00200036,
 0.00859024,0.10630675,-0.10550223,-0.00835656,0.01385116,-0.00656013,-
 0.00599588,-0.11787114,0.11524852,0.00016090,0.00102687,-0.00002750,0.
 00198853,-0.00252039,-0.00076124,-0.00738347,0.00073693,0.00067298,-0.
 00080306,0.00048045,0.00156852,-0.00007688,-0.00003654,-0.00001326,0.0
 0059228,-0.00021042,0.00022435,-0.00008732,-0.00016939,0.00032978,0.00
 004953,0.00158768,0.00028825,0.00039759,-0.00030483,0.00045154,0.00001
 154,0.00007474,0.00002929,0.00001246,-0.00017923,-0.00000977,-0.000262
 47,-0.00031340,0.00024842,-0.00011746,-0.00004793,-0.00000052,0.000578
 62,-0.00010396,-0.00138055,-0.00001078,0.00035555,-0.00004593,0.003484
 42,0.01640642,0.01321873,-0.00183770,0.00009956,0.00328190,0.00113778,
 0.00010558,-0.00051171,-0.05492071,-0.02602295,-0.02639722,-0.00696190
 ,-0.02003343,-0.02521781,0.00111718,-0.00179020,-0.00076625,0.06225820
 ,0.00080437,-0.00227891,0.00047198,0.00169769,0.00026284,-0.00010161,0
 .00105835,-0.00121724,0.00164693,0.00004967,-0.00018662,0.00065718,-0.
 00017015,0.00013020,-0.00012599,0.00026899,-0.00135244,0.00079134,0.00
 014869,0.00019602,0.00024115,0.00124192,-0.00198493,0.00068719,0.00004
 489,-0.00001258,0.00008944,0.00002857,-0.00001699,-0.00002367,0.000038
 15,-0.00000086,-0.00004237,-0.00028604,-0.00036793,0.00043486,0.000144
 28,-0.00006602,0.00008338,-0.00001571,0.00003814,0.00049090,-0.0009452
 2,0.00010135,-0.00011642,0.00153534,0.00164762,0.00259103,-0.00005252,
 0.00079113,-0.00018057,0.00042759,0.00088882,-0.00026942,-0.03291067,-
 0.19069819,-0.13563440,-0.00005192,0.00725611,0.00594426,-0.00451028,-
 0.02036825,-0.02006354,0.03157146,0.20690594,-0.00013355,-0.00036534,-
 0.00012063,0.00147933,-0.00286217,-0.00029021,-0.00290404,0.00058366,-
 0.00108091,0.00003757,-0.00065266,-0.00101475,-0.00007048,-0.00021692,
 -0.00029313,-0.00036385,0.00034409,-0.00095674,0.00024536,0.00003153,0
 .00037358,0.00015722,-0.00027141,0.00121656,-0.00006956,0.00043602,-0.
 00054957,-0.00000406,0.00010758,0.00007274,0.00001798,0.00013107,0.000
 14341,0.00083326,0.00060593,-0.00010790,0.00033034,-0.00011587,0.00035
 165,0.00015023,-0.00023527,-0.00084711,-0.00016680,0.00071566,0.000005
 92,-0.00343919,-0.01433998,-0.00989106,0.00139066,0.00055974,-0.002228
 59,-0.00023819,0.00021239,0.00151352,-0.03057706,-0.12888143,-0.171355
 57,-0.00496128,-0.00832382,-0.01191531,0.00303347,0.01014417,0.0117354
 2,0.03499491,0.14274523,0.18505200,-0.00041180,0.00041983,-0.00001053,
 -0.00065677,0.00047175,0.00068408,-0.06879346,0.00686352,-0.00331384,0
 .00410059,-0.03279526,-0.00079457,-0.00595627,-0.00041293,0.00005407,-
 0.00030574,-0.00067594,0.00065309,0.00020358,0.00017910,0.00002492,0.0
 0011820,0.00003004,-0.00004441,0.00195399,0.00054103,-0.00053205,0.000
 21163,-0.00186851,0.00013060,0.00020073,-0.00024617,0.00025844,0.00010
 958,0.00005705,0.00001032,0.00018845,-0.00022229,-0.00044690,0.0054611
 5,0.02634649,0.00327012,0.00138288,0.00043452,0.00106167,0.00015304,0.
 00001404,0.00078213,0.00035914,-0.00130394,-0.00034662,0.00061649,-0.0
 0090811,0.00012753,-0.00113284,0.00092010,0.00042215,0.00552408,0.0098
 2930,0.00065940,0.00021743,-0.00028737,0.00035249,0.00067272,-0.000117
 47,0.00025772,0.05578318,0.00137249,-0.00172840,0.00047417,-0.01194904
 ,0.00278608,-0.00353568,0.00587274,-0.20125159,0.01285292,-0.00039664,
 -0.04066009,-0.00332526,-0.00817863,0.00117703,0.00109512,0.00048350,-
 0.00043968,0.00037893,-0.00035353,-0.00075806,-0.00021005,-0.00004494,
 -0.00004315,-0.00027507,0.00083853,0.00093398,0.00114149,-0.00014196,-
 0.00273600,-0.00011648,0.00026024,0.00096820,-0.00046550,-0.00027930,-
 0.00002894,-0.00025706,-0.00013944,-0.00029516,-0.00032472,0.00158053,
 -0.03498709,-0.00296592,0.00279592,-0.00012463,0.00032068,0.00100133,-
 0.00058280,0.00122089,-0.00195792,0.00084271,-0.00069660,-0.00026653,0
 .00081652,0.00021651,0.00298500,-0.00129368,0.00097395,0.01567159,-0.0
 2727835,-0.03180239,-0.00117260,0.00036807,-0.00141448,-0.00071255,0.0
 0033278,-0.00035220,-0.00726879,0.30398225,0.00202384,-0.00204616,-0.0
 0003374,-0.00938901,-0.00109942,-0.00499369,-0.00382843,-0.00061628,-0
 .05964866,-0.00130338,0.00487069,0.00325933,0.00103390,0.00054289,0.00
 091275,0.00043608,0.00061100,-0.00050101,-0.00040101,-0.00081476,-0.00
 017051,-0.00011694,0.00004827,-0.00000341,-0.00167261,0.00009589,0.001
 01274,0.00025733,0.00029559,0.00022373,0.00025228,-0.00040554,0.000166
 76,-0.00001170,0.00002521,0.00014536,-0.00004412,0.00010339,0.00031008
 ,0.00167275,0.01498158,0.00726973,0.00225728,-0.00001243,0.00138681,-0
 .00085341,0.00005117,-0.00038155,-0.00005487,-0.00051319,-0.00028755,0
 .00014504,-0.00028198,0.00052777,0.00136585,0.00002064,0.00127227,0.01
 188205,-0.04257869,-0.00931311,-0.00021420,-0.00002774,0.00044988,-0.0
 0017691,-0.00031688,0.00018667,-0.00325980,0.02706676,0.05820934\\-0.0
 0003222,-0.00006173,0.00022741,0.00014228,-0.00005539,-0.00040973,-0.0
 0007720,0.00005198,-0.00001262,-0.00002664,0.00001065,0.00001493,0.000
 03157,0.00000821,-0.00004858,0.00006366,-0.00003619,-0.00000179,-0.000
 02255,0.00002366,-0.00002050,0.00000667,0.00002703,-0.00004015,0.00002
 196,0.00000474,0.00000132,-0.00005977,-0.00002580,0.00004361,0.0000482
 9,-0.00003283,0.00003064,-0.00009081,0.00002115,-0.00002571,-0.0000107
 6,-0.00000932,0.00000233,0.00005821,-0.00001224,0.00003651,-0.00013324
 ,0.00006662,0.00008796,-0.00000133,0.00000153,-0.00001461,-0.00001048,
 0.00004960,0.00001615,-0.00006240,-0.00002719,0.00000353,0.00003592,-0
 .00006966,-0.00004527,0.00011117,0.00001686,0.00015152,0.00001806,0.00
 001956,-0.00001669,-0.00001653,-0.00000529,-0.00002198,0.00000614,0.00
 003405,0.00004174\\\@


 A MATHEMATICIAN IS A MACHINE FOR TURNING COFFEE INTO THEOREMS.
     -- QUOTED BY PAUL ERDOS
 Job cpu time:       0 days  0 hours 52 minutes 14.1 seconds.
 Elapsed time:       0 days  0 hours 52 minutes 13.9 seconds.
 File lengths (MBytes):  RWF=    169 Int=      0 D2E=      0 Chk=      7 Scr=      1
 Normal termination of Gaussian 16 at Mon Apr 15 22:28:53 2019.
