 Entering Gaussian System, Link 0=g16
 Input=R.com
 Output=R.log
 Initial command:
 /opt/g16/l1.exe "/scratch/Grace/g03/Gau-17450.inp" -scrdir="/scratch/Grace/g03/"
 Entering Link 1 = /opt/g16/l1.exe PID=     17452.
  
 Copyright (c) 1988,1990,1992,1993,1995,1998,2003,2009,2016,
            Gaussian, Inc.  All Rights Reserved.
  
 This is part of the Gaussian(R) 16 program.  It is based on
 the Gaussian(R) 09 system (copyright 2009, Gaussian, Inc.),
 the Gaussian(R) 03 system (copyright 2003, Gaussian, Inc.),
 the Gaussian(R) 98 system (copyright 1998, Gaussian, Inc.),
 the Gaussian(R) 94 system (copyright 1995, Gaussian, Inc.),
 the Gaussian 92(TM) system (copyright 1992, Gaussian, Inc.),
 the Gaussian 90(TM) system (copyright 1990, Gaussian, Inc.),
 the Gaussian 88(TM) system (copyright 1988, Gaussian, Inc.),
 the Gaussian 86(TM) system (copyright 1986, Carnegie Mellon
 University), and the Gaussian 82(TM) system (copyright 1983,
 Carnegie Mellon University). Gaussian is a federally registered
 trademark of Gaussian, Inc.
  
 This software contains proprietary and confidential information,
 including trade secrets, belonging to Gaussian, Inc.
  
 This software is provided under written license and may be
 used, copied, transmitted, or stored only in accord with that
 written license.
  
 The following legend is applicable only to US Government
 contracts under FAR:
  
                    RESTRICTED RIGHTS LEGEND
  
 Use, reproduction and disclosure by the US Government is
 subject to restrictions as set forth in subparagraphs (a)
 and (c) of the Commercial Computer Software - Restricted
 Rights clause in FAR 52.227-19.
  
 Gaussian, Inc.
 340 Quinnipiac St., Bldg. 40, Wallingford CT 06492
  
  
 ---------------------------------------------------------------
 Warning -- This program may not be used in any manner that
 competes with the business of Gaussian, Inc. or will provide
 assistance to any competitor of Gaussian, Inc.  The licensee
 of this program is prohibited from giving any competitor of
 Gaussian, Inc. access to this program.  By using this program,
 the user acknowledges that Gaussian, Inc. is engaged in the
 business of creating and licensing software in the field of
 computational chemistry and represents and warrants to the
 licensee that it is not a competitor of Gaussian, Inc. and that
 it will not use this program in any manner prohibited above.
 ---------------------------------------------------------------
  

 Cite this work as:
 Gaussian 16, Revision A.03,
 M. J. Frisch, G. W. Trucks, H. B. Schlegel, G. E. Scuseria, 
 M. A. Robb, J. R. Cheeseman, G. Scalmani, V. Barone, 
 G. A. Petersson, H. Nakatsuji, X. Li, M. Caricato, A. V. Marenich, 
 J. Bloino, B. G. Janesko, R. Gomperts, B. Mennucci, H. P. Hratchian, 
 J. V. Ortiz, A. F. Izmaylov, J. L. Sonnenberg, D. Williams-Young, 
 F. Ding, F. Lipparini, F. Egidi, J. Goings, B. Peng, A. Petrone, 
 T. Henderson, D. Ranasinghe, V. G. Zakrzewski, J. Gao, N. Rega, 
 G. Zheng, W. Liang, M. Hada, M. Ehara, K. Toyota, R. Fukuda, 
 J. Hasegawa, M. Ishida, T. Nakajima, Y. Honda, O. Kitao, H. Nakai, 
 T. Vreven, K. Throssell, J. A. Montgomery, Jr., J. E. Peralta, 
 F. Ogliaro, M. J. Bearpark, J. J. Heyd, E. N. Brothers, K. N. Kudin, 
 V. N. Staroverov, T. A. Keith, R. Kobayashi, J. Normand, 
 K. Raghavachari, A. P. Rendell, J. C. Burant, S. S. Iyengar, 
 J. Tomasi, M. Cossi, J. M. Millam, M. Klene, C. Adamo, R. Cammi, 
 J. W. Ochterski, R. L. Martin, K. Morokuma, O. Farkas, 
 J. B. Foresman, and D. J. Fox, Gaussian, Inc., Wallingford CT, 2016.
 
 ******************************************
 Gaussian 16:  ES64L-G16RevA.03 25-Dec-2016
                16-Apr-2019 
 ******************************************
 ------------------------------------------
 #B3LYP/6-31+G(d,p) OPT Freq=hpmodes Nosymm
 ------------------------------------------
 1/18=20,19=15,26=3,38=1/1,3;
 2/9=110,12=2,15=1,17=6,18=5,40=1/2;
 3/5=1,6=6,7=111,11=2,25=1,30=1,71=1,74=-5/1,2,3;
 4//1;
 5/5=2,38=5/2;
 6/7=2,8=2,9=2,10=2,28=1/1;
 7/30=1/1,2,3,16;
 1/18=20,19=15,26=3/3(2);
 2/9=110,15=1/2;
 99//99;
 2/9=110,15=1/2;
 3/5=1,6=6,7=111,11=2,25=1,30=1,71=1,74=-5/1,2,3;
 4/5=5,16=3,69=1/1;
 5/5=2,38=5/2;
 7/30=1/1,2,3,16;
 1/18=20,19=15,26=3/3(-5);
 2/9=110,15=1/2;
 6/7=2,8=2,9=2,10=2,19=2,28=1/1;
 99/9=1/99;
 ----------------------------------------------------------------------
 initial structure is the last point of TS1_R.log (/TS1_IRC/CalcFC_LQA_
 Forward_10.log)
 ----------------------------------------------------------------------
 Symbolic Z-matrix:
 Charge =  0 Multiplicity = 1
 C                    -0.91603   1.93579  -0.10064 
 C                    -1.4051    0.49638  -0.17191 
 C                    -0.61796  -0.35887  -1.17109 
 C                     0.90929  -0.31901  -0.96502 
 C                     1.37668   1.15557  -0.93112 
 C                     0.6136    2.04026   0.07223 
 H                    -1.2129    2.42018  -1.04379 
 H                    -1.45532   2.43797   0.70662 
 H                     1.3522   -0.79122  -1.85198 
 H                     2.45262   1.18712  -0.71754 
 H                     1.25467   1.57554  -1.94038 
 H                     0.86982   1.75121   1.09408 
 H                     0.92201   3.08427  -0.05687 
 H                    -0.84187   0.05173  -2.16774 
 O                    -2.37498   0.0797    0.42562 
 C                     1.36716  -1.18604   0.22158 
 H                     0.93842  -2.18427   0.08345 
 H                     2.46371  -1.2901    0.19187 
 C                     1.60135  -0.93162   2.54257 
 N                     0.90358  -0.6907    1.51228 
 H                     2.5582   -1.47635   2.51802 
 H                     1.24527  -0.59375   3.5165 
 F                    -1.07602  -1.67451  -1.17264 
 

 GradGradGradGradGradGradGradGradGradGradGradGradGradGradGradGradGradGrad
 Berny optimization.
 Initialization pass.
                           ----------------------------
                           !    Initial Parameters    !
                           ! (Angstroms and Degrees)  !
 --------------------------                            --------------------------
 ! Name  Definition              Value          Derivative Info.                !
 --------------------------------------------------------------------------------
 ! R1    R(1,2)                  1.5219         estimate D2E/DX2                !
 ! R2    R(1,6)                  1.5429         estimate D2E/DX2                !
 ! R3    R(1,7)                  1.1011         estimate D2E/DX2                !
 ! R4    R(1,8)                  1.093          estimate D2E/DX2                !
 ! R5    R(2,3)                  1.5328         estimate D2E/DX2                !
 ! R6    R(2,15)                 1.213          estimate D2E/DX2                !
 ! R7    R(3,4)                  1.5416         estimate D2E/DX2                !
 ! R8    R(3,14)                 1.1009         estimate D2E/DX2                !
 ! R9    R(3,23)                 1.3931         estimate D2E/DX2                !
 ! R10   R(4,5)                  1.5473         estimate D2E/DX2                !
 ! R11   R(4,9)                  1.0981         estimate D2E/DX2                !
 ! R12   R(4,16)                 1.5393         estimate D2E/DX2                !
 ! R13   R(5,6)                  1.54           estimate D2E/DX2                !
 ! R14   R(5,10)                 1.0974         estimate D2E/DX2                !
 ! R15   R(5,11)                 1.0999         estimate D2E/DX2                !
 ! R16   R(6,12)                 1.0924         estimate D2E/DX2                !
 ! R17   R(6,13)                 1.0962         estimate D2E/DX2                !
 ! R18   R(16,17)                1.0952         estimate D2E/DX2                !
 ! R19   R(16,18)                1.1019         estimate D2E/DX2                !
 ! R20   R(16,20)                1.4581         estimate D2E/DX2                !
 ! R21   R(19,20)                1.2674         estimate D2E/DX2                !
 ! R22   R(19,21)                1.1013         estimate D2E/DX2                !
 ! R23   R(19,22)                1.0906         estimate D2E/DX2                !
 ! A1    A(2,1,6)              112.8222         estimate D2E/DX2                !
 ! A2    A(2,1,7)              106.8179         estimate D2E/DX2                !
 ! A3    A(2,1,8)              108.0936         estimate D2E/DX2                !
 ! A4    A(6,1,7)              109.4806         estimate D2E/DX2                !
 ! A5    A(6,1,8)              112.0428         estimate D2E/DX2                !
 ! A6    A(7,1,8)              107.3071         estimate D2E/DX2                !
 ! A7    A(1,2,3)              113.1557         estimate D2E/DX2                !
 ! A8    A(1,2,15)             123.9714         estimate D2E/DX2                !
 ! A9    A(3,2,15)             122.688          estimate D2E/DX2                !
 ! A10   A(2,3,4)              114.0288         estimate D2E/DX2                !
 ! A11   A(2,3,14)             106.1166         estimate D2E/DX2                !
 ! A12   A(2,3,23)             111.0277         estimate D2E/DX2                !
 ! A13   A(4,3,14)             108.2314         estimate D2E/DX2                !
 ! A14   A(4,3,23)             110.5063         estimate D2E/DX2                !
 ! A15   A(14,3,23)            106.519          estimate D2E/DX2                !
 ! A16   A(3,4,5)              109.0764         estimate D2E/DX2                !
 ! A17   A(3,4,9)              106.2899         estimate D2E/DX2                !
 ! A18   A(3,4,16)             112.53           estimate D2E/DX2                !
 ! A19   A(5,4,9)              107.7993         estimate D2E/DX2                !
 ! A20   A(5,4,16)             115.4717         estimate D2E/DX2                !
 ! A21   A(9,4,16)             105.0973         estimate D2E/DX2                !
 ! A22   A(4,5,6)              114.3354         estimate D2E/DX2                !
 ! A23   A(4,5,10)             109.1374         estimate D2E/DX2                !
 ! A24   A(4,5,11)             108.0752         estimate D2E/DX2                !
 ! A25   A(6,5,10)             110.0289         estimate D2E/DX2                !
 ! A26   A(6,5,11)             108.8752         estimate D2E/DX2                !
 ! A27   A(10,5,11)            106.0434         estimate D2E/DX2                !
 ! A28   A(1,6,5)              112.2932         estimate D2E/DX2                !
 ! A29   A(1,6,12)             108.6275         estimate D2E/DX2                !
 ! A30   A(1,6,13)             109.2812         estimate D2E/DX2                !
 ! A31   A(5,6,12)             109.9508         estimate D2E/DX2                !
 ! A32   A(5,6,13)             109.3273         estimate D2E/DX2                !
 ! A33   A(12,6,13)            107.2269         estimate D2E/DX2                !
 ! A34   A(4,16,17)            107.4414         estimate D2E/DX2                !
 ! A35   A(4,16,18)            109.1733         estimate D2E/DX2                !
 ! A36   A(4,16,20)            113.3563         estimate D2E/DX2                !
 ! A37   A(17,16,18)           107.4643         estimate D2E/DX2                !
 ! A38   A(17,16,20)           107.2665         estimate D2E/DX2                !
 ! A39   A(18,16,20)           111.8602         estimate D2E/DX2                !
 ! A40   A(20,19,21)           123.6565         estimate D2E/DX2                !
 ! A41   A(20,19,22)           119.1615         estimate D2E/DX2                !
 ! A42   A(21,19,22)           117.1805         estimate D2E/DX2                !
 ! A43   A(16,20,19)           118.6816         estimate D2E/DX2                !
 ! D1    D(6,1,2,3)            -49.46           estimate D2E/DX2                !
 ! D2    D(6,1,2,15)           135.3752         estimate D2E/DX2                !
 ! D3    D(7,1,2,3)             70.883          estimate D2E/DX2                !
 ! D4    D(7,1,2,15)          -104.2818         estimate D2E/DX2                !
 ! D5    D(8,1,2,3)           -173.9214         estimate D2E/DX2                !
 ! D6    D(8,1,2,15)            10.9138         estimate D2E/DX2                !
 ! D7    D(2,1,6,5)             48.7998         estimate D2E/DX2                !
 ! D8    D(2,1,6,12)           -73.0274         estimate D2E/DX2                !
 ! D9    D(2,1,6,13)           170.292          estimate D2E/DX2                !
 ! D10   D(7,1,6,5)            -70.0048         estimate D2E/DX2                !
 ! D11   D(7,1,6,12)           168.1679         estimate D2E/DX2                !
 ! D12   D(7,1,6,13)            51.4874         estimate D2E/DX2                !
 ! D13   D(8,1,6,5)            171.0698         estimate D2E/DX2                !
 ! D14   D(8,1,6,12)            49.2425         estimate D2E/DX2                !
 ! D15   D(8,1,6,13)           -67.438          estimate D2E/DX2                !
 ! D16   D(1,2,3,4)             52.6734         estimate D2E/DX2                !
 ! D17   D(1,2,3,14)           -66.3636         estimate D2E/DX2                !
 ! D18   D(1,2,3,23)           178.2857         estimate D2E/DX2                !
 ! D19   D(15,2,3,4)          -132.091          estimate D2E/DX2                !
 ! D20   D(15,2,3,14)          108.872          estimate D2E/DX2                !
 ! D21   D(15,2,3,23)           -6.4787         estimate D2E/DX2                !
 ! D22   D(2,3,4,5)            -52.6227         estimate D2E/DX2                !
 ! D23   D(2,3,4,9)           -168.6012         estimate D2E/DX2                !
 ! D24   D(2,3,4,16)            76.8797         estimate D2E/DX2                !
 ! D25   D(14,3,4,5)            65.2071         estimate D2E/DX2                !
 ! D26   D(14,3,4,9)           -50.7714         estimate D2E/DX2                !
 ! D27   D(14,3,4,16)         -165.2905         estimate D2E/DX2                !
 ! D28   D(23,3,4,5)          -178.5097         estimate D2E/DX2                !
 ! D29   D(23,3,4,9)            65.5119         estimate D2E/DX2                !
 ! D30   D(23,3,4,16)          -49.0073         estimate D2E/DX2                !
 ! D31   D(3,4,5,6)             52.5492         estimate D2E/DX2                !
 ! D32   D(3,4,5,10)           176.2476         estimate D2E/DX2                !
 ! D33   D(3,4,5,11)           -68.8563         estimate D2E/DX2                !
 ! D34   D(9,4,5,6)            167.5571         estimate D2E/DX2                !
 ! D35   D(9,4,5,10)           -68.7444         estimate D2E/DX2                !
 ! D36   D(9,4,5,11)            46.1516         estimate D2E/DX2                !
 ! D37   D(16,4,5,6)           -75.3172         estimate D2E/DX2                !
 ! D38   D(16,4,5,10)           48.3812         estimate D2E/DX2                !
 ! D39   D(16,4,5,11)          163.2773         estimate D2E/DX2                !
 ! D40   D(3,4,16,17)           51.9512         estimate D2E/DX2                !
 ! D41   D(3,4,16,18)          168.2015         estimate D2E/DX2                !
 ! D42   D(3,4,16,20)          -66.3796         estimate D2E/DX2                !
 ! D43   D(5,4,16,17)          178.0757         estimate D2E/DX2                !
 ! D44   D(5,4,16,18)          -65.6741         estimate D2E/DX2                !
 ! D45   D(5,4,16,20)           59.7449         estimate D2E/DX2                !
 ! D46   D(9,4,16,17)          -63.2905         estimate D2E/DX2                !
 ! D47   D(9,4,16,18)           52.9598         estimate D2E/DX2                !
 ! D48   D(9,4,16,20)          178.3787         estimate D2E/DX2                !
 ! D49   D(4,5,6,1)            -51.6762         estimate D2E/DX2                !
 ! D50   D(4,5,6,12)            69.3938         estimate D2E/DX2                !
 ! D51   D(4,5,6,13)          -173.142          estimate D2E/DX2                !
 ! D52   D(10,5,6,1)          -174.8947         estimate D2E/DX2                !
 ! D53   D(10,5,6,12)          -53.8248         estimate D2E/DX2                !
 ! D54   D(10,5,6,13)           63.6395         estimate D2E/DX2                !
 ! D55   D(11,5,6,1)            69.2876         estimate D2E/DX2                !
 ! D56   D(11,5,6,12)         -169.6424         estimate D2E/DX2                !
 ! D57   D(11,5,6,13)          -52.1782         estimate D2E/DX2                !
 ! D58   D(4,16,20,19)        -151.4075         estimate D2E/DX2                !
 ! D59   D(17,16,20,19)         90.1605         estimate D2E/DX2                !
 ! D60   D(18,16,20,19)        -27.4413         estimate D2E/DX2                !
 ! D61   D(21,19,20,16)          1.5735         estimate D2E/DX2                !
 ! D62   D(22,19,20,16)       -177.9725         estimate D2E/DX2                !
 ! D63   D(20,19,21,22)       -179.5543         estimate D2E/DX2                !
 --------------------------------------------------------------------------------
 Trust Radius=3.00D-01 FncErr=1.00D-07 GrdErr=1.00D-06 EigMax=2.50D+02 EigMin=1.00D-04
 Number of steps in this run=    138 maximum allowed number of steps=    138.
 GradGradGradGradGradGradGradGradGradGradGradGradGradGradGradGradGradGrad

                          Input orientation:                          
 ---------------------------------------------------------------------
 Center     Atomic      Atomic             Coordinates (Angstroms)
 Number     Number       Type             X           Y           Z
 ---------------------------------------------------------------------
      1          6           0       -0.916026    1.935792   -0.100636
      2          6           0       -1.405096    0.496380   -0.171909
      3          6           0       -0.617958   -0.358865   -1.171090
      4          6           0        0.909293   -0.319010   -0.965024
      5          6           0        1.376678    1.155573   -0.931124
      6          6           0        0.613598    2.040256    0.072226
      7          1           0       -1.212896    2.420184   -1.043794
      8          1           0       -1.455319    2.437968    0.706624
      9          1           0        1.352200   -0.791219   -1.851978
     10          1           0        2.452618    1.187124   -0.717539
     11          1           0        1.254667    1.575535   -1.940376
     12          1           0        0.869822    1.751208    1.094078
     13          1           0        0.922013    3.084267   -0.056870
     14          1           0       -0.841866    0.051730   -2.167741
     15          8           0       -2.374983    0.079697    0.425621
     16          6           0        1.367164   -1.186036    0.221582
     17          1           0        0.938417   -2.184269    0.083451
     18          1           0        2.463714   -1.290103    0.191867
     19          6           0        1.601353   -0.931618    2.542569
     20          7           0        0.903583   -0.690703    1.512284
     21          1           0        2.558198   -1.476353    2.518019
     22          1           0        1.245273   -0.593752    3.516500
     23          9           0       -1.076023   -1.674513   -1.172644
 ---------------------------------------------------------------------
                    Distance matrix (angstroms):
                    1          2          3          4          5
     1  C    0.000000
     2  C    1.521899   0.000000
     3  C    2.549543   1.532773   0.000000
     4  C    3.027059   2.578815   1.541605   0.000000
     5  C    2.560262   2.957906   2.515885   1.547253   0.000000
     6  C    1.542901   2.553092   2.969570   2.594120   1.540022
     7  H    1.101052   2.120883   2.844867   3.465988   2.884065
     8  H    1.093017   2.131691   3.471204   3.998340   3.513824
     9  H    3.955836   3.476093   2.128864   1.098105   2.153734
    10  H    3.505544   3.956867   3.467597   2.170608   1.097388
    11  H    2.868159   3.371408   2.800077   2.158679   1.099929
    12  H    2.156540   2.890081   3.434659   2.920148   2.170974
    13  H    2.167786   3.482216   3.932958   3.522386   2.165849
    14  H    2.797876   2.120917   1.100925   2.156510   2.769409
    15  O    2.418799   1.212991   2.414324   3.588778   4.131976
    16  C    3.881055   3.266617   2.562120   1.539290   2.609972
    17  H    4.521919   3.569754   2.707079   2.139939   3.517951
    18  H    4.681303   4.276862   3.495935   2.167405   2.902428
    19  C    4.641742   4.294916   4.364018   3.627319   4.058742
    20  N    3.579241   3.094458   3.102531   2.505044   3.098838
    21  H    5.529043   5.180259   4.994624   4.023670   4.496622
    22  H    4.914619   4.670889   5.049782   4.502491   4.781084
    23  F    3.769496   2.412993   1.393110   2.412877   3.752794
                    6          7          8          9         10
     6  C    0.000000
     7  H    2.173920   0.000000
     8  H    2.200239   1.767215   0.000000
     9  H    3.502191   4.188793   4.985605   0.000000
    10  H    2.175674   3.881092   4.343365   2.532136   0.000000
    11  H    2.162753   2.757926   3.885154   2.370412   1.755358
    12  H    1.092420   3.058715   2.455207   3.921208   2.470909
    13  H    1.096241   2.443944   2.579212   4.292652   2.525547
    14  H    3.330175   2.647734   3.785820   2.371539   3.774365
    15  O    3.591698   2.997917   2.546799   4.453970   5.083202
    16  C    3.316493   4.611150   4.618991   2.110866   2.773454
    17  H    4.237009   5.205748   5.242460   2.420267   3.781624
    18  H    3.811631   5.367546   5.433443   2.379422   2.638901
    19  C    3.988770   5.658319   4.905920   4.403843   3.980204
    20  N    3.100967   4.548696   4.000261   3.395529   3.301190
    21  H    4.704244   6.487732   5.891636   4.584835   4.192147
    22  H    4.381784   5.993554   4.937603   5.373172   4.749346
    23  F    4.266618   4.099010   4.537402   2.671698   4.565895
                   11         12         13         14         15
    11  H    0.000000
    12  H    3.063801   0.000000
    13  H    2.436088   1.761945   0.000000
    14  H    2.601755   4.056792   4.094304   0.000000
    15  O    4.583648   3.710734   4.486694   3.012766   0.000000
    16  C    3.508987   3.104191   4.302462   3.481486   3.955676
    17  H    4.281590   4.063748   5.270430   3.638264   4.027560
    18  H    3.770960   3.550218   4.644763   4.277280   5.034281
    19  C    5.148087   3.135414   4.831761   5.396602   4.616869
    20  N    4.144871   2.477694   4.088151   4.140095   3.538834
    21  H    5.557922   3.910930   5.486931   5.987639   5.579937
    22  H    5.872256   3.392334   5.138219   6.089613   4.807631
    23  F    4.072388   4.545317   5.280444   2.006231   2.705365
                   16         17         18         19         20
    16  C    0.000000
    17  H    1.095159   0.000000
    18  H    1.101878   1.771389   0.000000
    19  C    2.346605   2.838288   2.529422   0.000000
    20  N    1.458141   2.067249   2.129974   1.267442   0.000000
    21  H    2.603165   3.008647   2.335508   1.101313   2.089617
    22  H    3.349947   3.796015   3.608696   1.090637   2.035444
    23  F    2.855107   2.428085   3.813056   4.639293   3.477867
                   21         22         23
    21  H    0.000000
    22  H    1.870754   0.000000
    23  F    5.183418   5.342708   0.000000
 Symmetry turned off by external request.
 Stoichiometry    C8H12FNO
 Framework group  C1[X(C8H12FNO)]
 Deg. of freedom    63
 Full point group                 C1      NOp   1
 Rotational constants (GHZ):           1.2668847           1.0060473           0.8818765
 Standard basis: 6-31+G(d,p) (6D, 7F)
   269 basis functions,   436 primitive gaussians,   269 cartesian basis functions
    42 alpha electrons       42 beta electrons
       nuclear repulsion energy       655.3164466205 Hartrees.
 NAtoms=   23 NActive=   23 NUniq=   23 SFac= 1.00D+00 NAtFMM=   60 NAOKFM=F Big=F
 Integral buffers will be    131072 words long.
 Raffenetti 2 integral format.
 Two-electron integral symmetry is turned off.
 One-electron integrals computed using PRISM.
 NBasis=   269 RedAO= T EigKep=  2.81D-05  NBF=   269
 NBsUse=   269 1.00D-06 EigRej= -1.00D+00 NBFU=   269
 ExpMin= 4.38D-02 ExpMax= 7.00D+03 ExpMxC= 1.05D+03 IAcc=3 IRadAn=         5 AccDes= 0.00D+00
 Harris functional with IExCor=  402 and IRadAn=       5 diagonalized for initial guess.
 HarFok:  IExCor=  402 AccDes= 0.00D+00 IRadAn=         5 IDoV= 1 UseB2=F ITyADJ=14
 ICtDFT=  3500011 ScaDFX=  1.000000  1.000000  1.000000  1.000000
 FoFCou: FMM=F IPFlag=           0 FMFlag=      100000 FMFlg1=           0
         NFxFlg=           0 DoJE=T BraDBF=F KetDBF=T FulRan=T
         wScrn=  0.000000 ICntrl=       500 IOpCl=  0 I1Cent=   200000004 NGrid=           0
         NMat0=    1 NMatS0=      1 NMatT0=    0 NMatD0=    1 NMtDS0=    0 NMtDT0=    0
 Symmetry not used in FoFCou.
 Requested convergence on RMS density matrix=1.00D-08 within 128 cycles.
 Requested convergence on MAX density matrix=1.00D-06.
 Requested convergence on             energy=1.00D-06.
 No special actions if energy rises.
 SCF Done:  E(RB3LYP) =  -541.898941945     A.U. after   13 cycles
            NFock= 13  Conv=0.97D-08     -V/T= 2.0093

 **********************************************************************

            Population analysis using the SCF density.

 **********************************************************************

 Alpha  occ. eigenvalues --  -24.69914 -19.14818 -14.35413 -10.28133 -10.27887
 Alpha  occ. eigenvalues --  -10.24155 -10.22774 -10.21808 -10.20683 -10.20160
 Alpha  occ. eigenvalues --  -10.20000  -1.19981  -1.04502  -0.93876  -0.84748
 Alpha  occ. eigenvalues --   -0.78044  -0.73953  -0.71353  -0.63768  -0.61142
 Alpha  occ. eigenvalues --   -0.58225  -0.55047  -0.51296  -0.50394  -0.49311
 Alpha  occ. eigenvalues --   -0.48173  -0.47168  -0.45672  -0.44130  -0.43555
 Alpha  occ. eigenvalues --   -0.41730  -0.40788  -0.39134  -0.38939  -0.36660
 Alpha  occ. eigenvalues --   -0.36184  -0.35118  -0.33927  -0.32845  -0.30985
 Alpha  occ. eigenvalues --   -0.26871  -0.24888
 Alpha virt. eigenvalues --   -0.03893  -0.03029  -0.00280   0.01010   0.01290
 Alpha virt. eigenvalues --    0.01917   0.03378   0.03922   0.04488   0.04909
 Alpha virt. eigenvalues --    0.05318   0.06352   0.07039   0.07945   0.08243
 Alpha virt. eigenvalues --    0.08807   0.09887   0.10205   0.10243   0.11325
 Alpha virt. eigenvalues --    0.12308   0.12832   0.13121   0.13699   0.14221
 Alpha virt. eigenvalues --    0.14902   0.15610   0.15720   0.17302   0.17602
 Alpha virt. eigenvalues --    0.17963   0.18304   0.18972   0.19306   0.19874
 Alpha virt. eigenvalues --    0.19953   0.21270   0.21889   0.22460   0.22729
 Alpha virt. eigenvalues --    0.23495   0.24413   0.24938   0.25433   0.26624
 Alpha virt. eigenvalues --    0.26904   0.27689   0.28337   0.29501   0.30455
 Alpha virt. eigenvalues --    0.31500   0.32218   0.33223   0.33254   0.34033
 Alpha virt. eigenvalues --    0.34648   0.36006   0.36664   0.37485   0.37636
 Alpha virt. eigenvalues --    0.38912   0.40371   0.40612   0.41639   0.43598
 Alpha virt. eigenvalues --    0.44194   0.47534   0.49863   0.52569   0.60628
 Alpha virt. eigenvalues --    0.61788   0.63518   0.64521   0.66491   0.68763
 Alpha virt. eigenvalues --    0.68929   0.70697   0.71904   0.73272   0.74437
 Alpha virt. eigenvalues --    0.75482   0.76030   0.78264   0.80653   0.81152
 Alpha virt. eigenvalues --    0.82732   0.84196   0.86678   0.88095   0.90121
 Alpha virt. eigenvalues --    0.92801   0.93404   0.95262   0.96978   0.97914
 Alpha virt. eigenvalues --    0.99432   1.01068   1.01959   1.04808   1.05624
 Alpha virt. eigenvalues --    1.08141   1.09169   1.09830   1.11892   1.12913
 Alpha virt. eigenvalues --    1.13346   1.15525   1.18141   1.21399   1.22305
 Alpha virt. eigenvalues --    1.27551   1.30034   1.32031   1.32977   1.35770
 Alpha virt. eigenvalues --    1.37244   1.38939   1.41449   1.42390   1.47698
 Alpha virt. eigenvalues --    1.49653   1.49725   1.52811   1.54205   1.57527
 Alpha virt. eigenvalues --    1.62117   1.66217   1.67614   1.68244   1.69141
 Alpha virt. eigenvalues --    1.71330   1.72274   1.74842   1.75683   1.77126
 Alpha virt. eigenvalues --    1.80176   1.80569   1.82367   1.84382   1.85576
 Alpha virt. eigenvalues --    1.86782   1.88315   1.89077   1.92671   1.93653
 Alpha virt. eigenvalues --    1.96251   1.96873   1.97628   2.00254   2.01901
 Alpha virt. eigenvalues --    2.02652   2.04641   2.06703   2.07932   2.10467
 Alpha virt. eigenvalues --    2.11844   2.13244   2.16200   2.17257   2.18667
 Alpha virt. eigenvalues --    2.19450   2.22281   2.24444   2.27885   2.28902
 Alpha virt. eigenvalues --    2.31795   2.32643   2.33383   2.34872   2.39048
 Alpha virt. eigenvalues --    2.39785   2.41674   2.44921   2.46044   2.47543
 Alpha virt. eigenvalues --    2.50078   2.51073   2.53124   2.54240   2.55876
 Alpha virt. eigenvalues --    2.59059   2.62217   2.64706   2.64825   2.66552
 Alpha virt. eigenvalues --    2.68387   2.69998   2.72389   2.75755   2.77801
 Alpha virt. eigenvalues --    2.79350   2.82376   2.84432   2.86550   2.87215
 Alpha virt. eigenvalues --    2.90647   2.91286   2.92995   2.94249   2.94683
 Alpha virt. eigenvalues --    3.00271   3.06475   3.21363   3.29179   3.30694
 Alpha virt. eigenvalues --    3.31545   3.34263   3.34856   3.38130   3.44941
 Alpha virt. eigenvalues --    3.47844   3.49510   3.50988   3.51975   3.56836
 Alpha virt. eigenvalues --    3.57552   4.20929   4.30293   4.36590   4.42918
 Alpha virt. eigenvalues --    4.49786   4.53621   4.69250   4.76342   4.79681
 Alpha virt. eigenvalues --    4.84903   6.16100
          Condensed to atoms (all electrons):
               1          2          3          4          5          6
     1  C    6.467958  -0.106058  -0.699120   0.185687  -0.189361   0.125944
     2  C   -0.106058   6.334182  -0.872025   0.013479   0.027724  -0.186511
     3  C   -0.699120  -0.872025   7.049867  -0.286086   0.095052   0.221483
     4  C    0.185687   0.013479  -0.286086   6.857025  -0.462770  -0.156463
     5  C   -0.189361   0.027724   0.095052  -0.462770   6.038158   0.117897
     6  C    0.125944  -0.186511   0.221483  -0.156463   0.117897   5.457077
     7  H    0.373730  -0.019510   0.021801  -0.015890   0.015149  -0.059533
     8  H    0.367600  -0.031443   0.022243  -0.006495   0.022392  -0.041066
     9  H   -0.011651  -0.004997   0.026197   0.242892  -0.000264   0.021467
    10  H    0.024710  -0.017690   0.019322  -0.056773   0.382283  -0.027840
    11  H   -0.015083   0.013332  -0.028419  -0.029544   0.414507  -0.044629
    12  H   -0.080630   0.037715  -0.014415   0.011316  -0.055417   0.435638
    13  H   -0.027004   0.015131  -0.013242   0.038400  -0.054442   0.363537
    14  H    0.031463  -0.007837   0.308864   0.009212  -0.000016  -0.023588
    15  O   -0.191089   0.698635  -0.156287   0.007978   0.002516   0.017203
    16  C    0.072814  -0.102973  -0.057738   0.096479  -0.033008  -0.031334
    17  H    0.002428   0.000964  -0.027061  -0.069634   0.020720  -0.009838
    18  H    0.002741  -0.009045   0.032267  -0.068623  -0.034903   0.010256
    19  C    0.007236  -0.029550  -0.007306  -0.016914   0.041567  -0.024924
    20  N   -0.016151   0.025416   0.089287  -0.391175   0.096805  -0.019966
    21  H    0.000158   0.000492  -0.000498   0.002418  -0.003097   0.000303
    22  H   -0.000880  -0.001061   0.000424  -0.002135  -0.000317   0.003397
    23  F    0.026528  -0.082230   0.180555  -0.074923   0.019931  -0.003966
               7          8          9         10         11         12
     1  C    0.373730   0.367600  -0.011651   0.024710  -0.015083  -0.080630
     2  C   -0.019510  -0.031443  -0.004997  -0.017690   0.013332   0.037715
     3  C    0.021801   0.022243   0.026197   0.019322  -0.028419  -0.014415
     4  C   -0.015890  -0.006495   0.242892  -0.056773  -0.029544   0.011316
     5  C    0.015149   0.022392  -0.000264   0.382283   0.414507  -0.055417
     6  C   -0.059533  -0.041066   0.021467  -0.027840  -0.044629   0.435638
     7  H    0.555136  -0.023906  -0.000022  -0.000026   0.002268   0.004633
     8  H   -0.023906   0.525583   0.000011  -0.000127  -0.000022  -0.004698
     9  H   -0.000022   0.000011   0.606171  -0.001869  -0.007218  -0.000102
    10  H   -0.000026  -0.000127  -0.001869   0.573925  -0.030455  -0.004534
    11  H    0.002268  -0.000022  -0.007218  -0.030455   0.575296   0.004754
    12  H    0.004633  -0.004698  -0.000102  -0.004534   0.004754   0.532965
    13  H   -0.007287  -0.001133  -0.000159  -0.001742  -0.006253  -0.031297
    14  H   -0.000228  -0.000012  -0.010748  -0.000097   0.002148   0.000027
    15  O   -0.002500  -0.001136  -0.000387   0.000182  -0.000481  -0.000636
    16  C   -0.006352   0.001139  -0.015157   0.000558   0.006040  -0.010138
    17  H   -0.000001   0.000000  -0.002445   0.000057  -0.000143  -0.000044
    18  H    0.000000  -0.000001  -0.002444   0.002959   0.000062   0.000124
    19  C    0.000697  -0.000431  -0.000016  -0.001316   0.001108   0.003836
    20  N    0.001503   0.001446   0.019137  -0.001849  -0.001316  -0.002284
    21  H    0.000000  -0.000000   0.000006  -0.000012  -0.000000   0.000018
    22  H   -0.000000   0.000001   0.000003   0.000003  -0.000000  -0.000055
    23  F   -0.000279  -0.000218  -0.000448  -0.000362  -0.000235  -0.000215
              13         14         15         16         17         18
     1  C   -0.027004   0.031463  -0.191089   0.072814   0.002428   0.002741
     2  C    0.015131  -0.007837   0.698635  -0.102973   0.000964  -0.009045
     3  C   -0.013242   0.308864  -0.156287  -0.057738  -0.027061   0.032267
     4  C    0.038400   0.009212   0.007978   0.096479  -0.069634  -0.068623
     5  C   -0.054442  -0.000016   0.002516  -0.033008   0.020720  -0.034903
     6  C    0.363537  -0.023588   0.017203  -0.031334  -0.009838   0.010256
     7  H   -0.007287  -0.000228  -0.002500  -0.006352  -0.000001   0.000000
     8  H   -0.001133  -0.000012  -0.001136   0.001139   0.000000  -0.000001
     9  H   -0.000159  -0.010748  -0.000387  -0.015157  -0.002445  -0.002444
    10  H   -0.001742  -0.000097   0.000182   0.000558   0.000057   0.002959
    11  H   -0.006253   0.002148  -0.000481   0.006040  -0.000143   0.000062
    12  H   -0.031297   0.000027  -0.000636  -0.010138  -0.000044   0.000124
    13  H    0.587019  -0.000016  -0.000518   0.003745   0.000004   0.000011
    14  H   -0.000016   0.593660  -0.006736  -0.000665   0.000129  -0.000124
    15  O   -0.000518  -0.006736   8.064134  -0.019388   0.000531  -0.000051
    16  C    0.003745  -0.000665  -0.019388   5.549878   0.432315   0.424737
    17  H    0.000004   0.000129   0.000531   0.432315   0.534513  -0.033897
    18  H    0.000011  -0.000124  -0.000051   0.424737  -0.033897   0.611758
    19  C   -0.001106   0.000956   0.000625  -0.120412  -0.011249  -0.012241
    20  N   -0.001117   0.000872  -0.010215   0.303776  -0.026282  -0.057649
    21  H    0.000002   0.000000  -0.000060  -0.025831   0.000266   0.011163
    22  H   -0.000005  -0.000000   0.000114  -0.002300  -0.000285  -0.000409
    23  F    0.000040  -0.044914   0.001387  -0.019536   0.005009  -0.000639
              19         20         21         22         23
     1  C    0.007236  -0.016151   0.000158  -0.000880   0.026528
     2  C   -0.029550   0.025416   0.000492  -0.001061  -0.082230
     3  C   -0.007306   0.089287  -0.000498   0.000424   0.180555
     4  C   -0.016914  -0.391175   0.002418  -0.002135  -0.074923
     5  C    0.041567   0.096805  -0.003097  -0.000317   0.019931
     6  C   -0.024924  -0.019966   0.000303   0.003397  -0.003966
     7  H    0.000697   0.001503   0.000000  -0.000000  -0.000279
     8  H   -0.000431   0.001446  -0.000000   0.000001  -0.000218
     9  H   -0.000016   0.019137   0.000006   0.000003  -0.000448
    10  H   -0.001316  -0.001849  -0.000012   0.000003  -0.000362
    11  H    0.001108  -0.001316  -0.000000  -0.000000  -0.000235
    12  H    0.003836  -0.002284   0.000018  -0.000055  -0.000215
    13  H   -0.001106  -0.001117   0.000002  -0.000005   0.000040
    14  H    0.000956   0.000872   0.000000  -0.000000  -0.044914
    15  O    0.000625  -0.010215  -0.000060   0.000114   0.001387
    16  C   -0.120412   0.303776  -0.025831  -0.002300  -0.019536
    17  H   -0.011249  -0.026282   0.000266  -0.000285   0.005009
    18  H   -0.012241  -0.057649   0.011163  -0.000409  -0.000639
    19  C    5.026267   0.381054   0.402106   0.425373   0.003406
    20  N    0.381054   6.890033  -0.063382  -0.083298  -0.001731
    21  H    0.402106  -0.063382   0.624556  -0.056874  -0.000052
    22  H    0.425373  -0.083298  -0.056874   0.581820  -0.000002
    23  F    0.003406  -0.001731  -0.000052  -0.000002   9.323472
 Mulliken charges:
               1
     1  C   -0.351969
     2  C    0.303859
     3  C    0.094836
     4  C    0.172538
     5  C   -0.461105
     6  C   -0.144545
     7  H    0.160614
     8  H    0.170272
     9  H    0.142041
    10  H    0.140692
    11  H    0.144281
    12  H    0.173439
    13  H    0.137432
    14  H    0.147649
    15  O   -0.403821
    16  C   -0.446649
    17  H    0.183941
    18  H    0.123948
    19  C   -0.068767
    20  N   -0.132914
    21  H    0.108318
    22  H    0.136486
    23  F   -0.330578
 Sum of Mulliken charges =  -0.00000
 Mulliken charges with hydrogens summed into heavy atoms:
               1
     1  C   -0.021082
     2  C    0.303859
     3  C    0.242485
     4  C    0.314579
     5  C   -0.176132
     6  C    0.166326
    15  O   -0.403821
    16  C   -0.138760
    19  C    0.176037
    20  N   -0.132914
    23  F   -0.330578
 Electronic spatial extent (au):  <R**2>=           1634.8560
 Charge=             -0.0000 electrons
 Dipole moment (field-independent basis, Debye):
    X=              4.8350    Y=              1.9598    Z=             -0.8858  Tot=              5.2917
 Quadrupole moment (field-independent basis, Debye-Ang):
   XX=            -71.8786   YY=            -65.1884   ZZ=            -60.7616
   XY=             -5.6501   XZ=              4.7626   YZ=             -3.3999
 Traceless Quadrupole moment (field-independent basis, Debye-Ang):
   XX=             -5.9357   YY=              0.7545   ZZ=              5.1813
   XY=             -5.6501   XZ=              4.7626   YZ=             -3.3999
 Octapole moment (field-independent basis, Debye-Ang**2):
  XXX=              2.3961  YYY=            -13.9606  ZZZ=              5.0897  XYY=             -4.9443
  XXY=             -6.9472  XXZ=             -3.2215  XZZ=             -0.1797  YZZ=             -7.6233
  YYZ=              1.9553  XYZ=             -0.6557
 Hexadecapole moment (field-independent basis, Debye-Ang**3):
 XXXX=           -845.0090 YYYY=           -704.5524 ZZZZ=           -570.2491 XXXY=             35.9079
 XXXZ=            -67.6414 YYYX=             35.2005 YYYZ=             44.6393 ZZZX=            -62.7153
 ZZZY=             37.5285 XXYY=           -249.5622 XXZZ=           -227.4946 YYZZ=           -227.6745
 XXYZ=              5.8623 YYXZ=            -32.7223 ZZXY=              0.3077
 N-N= 6.553164466205D+02 E-N=-2.575105425015D+03  KE= 5.369258973546D+02
 Calling FoFJK, ICntrl=      2127 FMM=F ISym2X=0 I1Cent= 0 IOpClX= 0 NMat=1 NMatS=1 NMatT=0.
 -------------------------------------------------------------------
 Center     Atomic                   Forces (Hartrees/Bohr)
 Number     Number              X              Y              Z
 -------------------------------------------------------------------
      1        6           0.000364681   -0.000130273    0.000393754
      2        6          -0.000268420   -0.000554489   -0.000128768
      3        6          -0.000288948    0.000405406    0.000059259
      4        6          -0.000077162    0.000149707    0.000026363
      5        6          -0.000142145    0.000101525   -0.000536414
      6        6           0.000048765   -0.000212195   -0.000132690
      7        1           0.000113359    0.000086655   -0.000060439
      8        1          -0.000036266    0.000072654    0.000083129
      9        1           0.000068119   -0.000071982   -0.000084190
     10        1          -0.000284413   -0.000084747    0.000043260
     11        1           0.000127808   -0.000112735    0.000339011
     12        1          -0.000057410   -0.000091492   -0.000086391
     13        1           0.000057659    0.000106173    0.000068057
     14        1          -0.000017500   -0.000060906   -0.000011983
     15        8           0.000428583    0.000266644   -0.000365881
     16        6           0.000211128    0.001035580    0.000579853
     17        1          -0.000385499   -0.000742338   -0.000143400
     18        1           0.000512242    0.000010672    0.000030002
     19        6           0.000602718   -0.000044661    0.000532148
     20        7          -0.001261411   -0.000309453   -0.000651047
     21        1           0.000164931    0.000270256   -0.000176747
     22        1           0.000106475   -0.000035423    0.000161317
     23        9           0.000012707   -0.000054579    0.000061798
 -------------------------------------------------------------------
 Cartesian Forces:  Max     0.001261411 RMS     0.000328754

 GradGradGradGradGradGradGradGradGradGradGradGradGradGradGradGradGradGrad
 Berny optimization.
 FormGI is forming the generalized inverse of G from B-inverse, IUseBI=4.
 Internal  Forces:  Max     0.001080601 RMS     0.000242360
 Search for a local minimum.
 Step number   1 out of a maximum of  138
 All quantities printed in internal units (Hartrees-Bohrs-Radians)
 Mixed Optimization -- En-DIIS/RFO-DIIS
 Second derivative matrix not updated -- first step.
 ITU=  0
     Eigenvalues ---    0.00246   0.00399   0.00424   0.00440   0.00776
     Eigenvalues ---    0.00923   0.01329   0.02219   0.02508   0.03445
     Eigenvalues ---    0.03769   0.03958   0.04293   0.04569   0.04572
     Eigenvalues ---    0.04793   0.04859   0.05325   0.05710   0.05921
     Eigenvalues ---    0.05955   0.07542   0.08189   0.08569   0.09103
     Eigenvalues ---    0.09473   0.09806   0.11491   0.11791   0.12909
     Eigenvalues ---    0.13975   0.15205   0.16000   0.16000   0.18076
     Eigenvalues ---    0.18299   0.22072   0.22107   0.24856   0.25000
     Eigenvalues ---    0.27105   0.27188   0.27733   0.28321   0.28582
     Eigenvalues ---    0.28922   0.29663   0.33475   0.33537   0.33566
     Eigenvalues ---    0.33580   0.33690   0.33893   0.33973   0.34101
     Eigenvalues ---    0.34223   0.34466   0.34534   0.34739   0.37198
     Eigenvalues ---    0.46782   0.77111   0.98557
 RFO step:  Lambda=-2.16280466D-04 EMin= 2.46216010D-03
 Linear search not attempted -- first point.
 Iteration  1 RMS(Cart)=  0.03225506 RMS(Int)=  0.00111137
 Iteration  2 RMS(Cart)=  0.00148475 RMS(Int)=  0.00001006
 Iteration  3 RMS(Cart)=  0.00000192 RMS(Int)=  0.00001001
 Iteration  4 RMS(Cart)=  0.00000000 RMS(Int)=  0.00001001
 Variable       Old X    -DE/DX   Delta X   Delta X   Delta X     New X
                                 (Linear)    (Quad)   (Total)
    R1        2.87597   0.00009   0.00000   0.00143   0.00144   2.87741
    R2        2.91566  -0.00033   0.00000  -0.00120  -0.00119   2.91447
    R3        2.08069   0.00006   0.00000   0.00018   0.00018   2.08086
    R4        2.06550   0.00011   0.00000   0.00033   0.00033   2.06583
    R5        2.89652  -0.00040   0.00000  -0.00054  -0.00054   2.89598
    R6        2.29222  -0.00061   0.00000  -0.00062  -0.00062   2.29160
    R7        2.91321   0.00002   0.00000   0.00016   0.00016   2.91337
    R8        2.08045  -0.00001   0.00000  -0.00002  -0.00002   2.08042
    R9        2.63260   0.00005   0.00000   0.00010   0.00010   2.63270
   R10        2.92389  -0.00028   0.00000  -0.00221  -0.00222   2.92167
   R11        2.07512   0.00013   0.00000   0.00037   0.00037   2.07549
   R12        2.90884   0.00014   0.00000   0.00048   0.00048   2.90932
   R13        2.91022  -0.00033   0.00000  -0.00205  -0.00205   2.90817
   R14        2.07376  -0.00027   0.00000  -0.00080  -0.00080   2.07296
   R15        2.07857  -0.00037   0.00000  -0.00109  -0.00109   2.07747
   R16        2.06437  -0.00007   0.00000  -0.00020  -0.00020   2.06417
   R17        2.07160   0.00011   0.00000   0.00032   0.00032   2.07192
   R18        2.06955   0.00085   0.00000   0.00247   0.00247   2.07202
   R19        2.08225   0.00051   0.00000   0.00152   0.00152   2.08376
   R20        2.75549  -0.00003   0.00000  -0.00009  -0.00009   2.75539
   R21        2.39512   0.00087   0.00000   0.00112   0.00112   2.39624
   R22        2.08118   0.00001   0.00000   0.00004   0.00004   2.08122
   R23        2.06100   0.00010   0.00000   0.00028   0.00028   2.06129
    A1        1.96912   0.00000   0.00000   0.00223   0.00220   1.97132
    A2        1.86432   0.00008   0.00000  -0.00003  -0.00002   1.86431
    A3        1.88659   0.00002   0.00000   0.00022   0.00023   1.88682
    A4        1.91080  -0.00014   0.00000  -0.00239  -0.00238   1.90842
    A5        1.95552   0.00002   0.00000   0.00012   0.00012   1.95564
    A6        1.87286   0.00003   0.00000  -0.00025  -0.00025   1.87261
    A7        1.97494   0.00017   0.00000   0.00286   0.00283   1.97777
    A8        2.16371  -0.00011   0.00000  -0.00139  -0.00138   2.16232
    A9        2.14131  -0.00006   0.00000  -0.00110  -0.00109   2.14022
   A10        1.99018  -0.00022   0.00000  -0.00018  -0.00021   1.98997
   A11        1.85208   0.00018   0.00000   0.00085   0.00086   1.85294
   A12        1.93780  -0.00003   0.00000  -0.00057  -0.00056   1.93724
   A13        1.88899  -0.00006   0.00000   0.00042   0.00042   1.88942
   A14        1.92870   0.00016   0.00000  -0.00048  -0.00047   1.92823
   A15        1.85911  -0.00002   0.00000   0.00007   0.00007   1.85918
   A16        1.90374   0.00012   0.00000  -0.00095  -0.00097   1.90277
   A17        1.85511  -0.00011   0.00000   0.00217   0.00217   1.85728
   A18        1.96402   0.00043   0.00000   0.00273   0.00274   1.96676
   A19        1.88145   0.00004   0.00000  -0.00008  -0.00007   1.88138
   A20        2.01536  -0.00058   0.00000  -0.00456  -0.00455   2.01081
   A21        1.83429   0.00010   0.00000   0.00124   0.00123   1.83552
   A22        1.99553  -0.00006   0.00000  -0.00401  -0.00405   1.99148
   A23        1.90481  -0.00011   0.00000  -0.00169  -0.00168   1.90312
   A24        1.88627   0.00013   0.00000   0.00334   0.00335   1.88962
   A25        1.92037  -0.00005   0.00000  -0.00129  -0.00129   1.91907
   A26        1.90023   0.00009   0.00000   0.00318   0.00319   1.90342
   A27        1.85081  -0.00000   0.00000   0.00095   0.00094   1.85175
   A28        1.95989  -0.00003   0.00000  -0.00193  -0.00196   1.95793
   A29        1.89591   0.00002   0.00000  -0.00029  -0.00029   1.89562
   A30        1.90732  -0.00001   0.00000   0.00106   0.00107   1.90839
   A31        1.91900  -0.00005   0.00000  -0.00059  -0.00058   1.91842
   A32        1.90812   0.00007   0.00000   0.00133   0.00134   1.90946
   A33        1.87146   0.00000   0.00000   0.00053   0.00052   1.87199
   A34        1.87521   0.00022   0.00000   0.00240   0.00240   1.87760
   A35        1.90543  -0.00038   0.00000  -0.00308  -0.00308   1.90235
   A36        1.97844   0.00028   0.00000   0.00116   0.00116   1.97960
   A37        1.87561   0.00007   0.00000   0.00053   0.00053   1.87614
   A38        1.87215  -0.00020   0.00000  -0.00038  -0.00038   1.87177
   A39        1.95233   0.00003   0.00000  -0.00044  -0.00044   1.95189
   A40        2.15821  -0.00030   0.00000  -0.00186  -0.00189   2.15633
   A41        2.07976   0.00033   0.00000   0.00207   0.00204   2.08180
   A42        2.04518  -0.00002   0.00000  -0.00012  -0.00015   2.04504
   A43        2.07138  -0.00108   0.00000  -0.00432  -0.00432   2.06707
    D1       -0.86324   0.00012   0.00000   0.01174   0.01175  -0.85149
    D2        2.36274   0.00001   0.00000   0.00703   0.00703   2.36978
    D3        1.23714  -0.00000   0.00000   0.01010   0.01010   1.24724
    D4       -1.82006  -0.00011   0.00000   0.00539   0.00538  -1.81468
    D5       -3.03550   0.00008   0.00000   0.00990   0.00991  -3.02560
    D6        0.19048  -0.00003   0.00000   0.00519   0.00519   0.19568
    D7        0.85172  -0.00006   0.00000  -0.00072  -0.00072   0.85099
    D8       -1.27457   0.00001   0.00000   0.00148   0.00148  -1.27309
    D9        2.97216  -0.00000   0.00000   0.00043   0.00042   2.97258
   D10       -1.22181  -0.00007   0.00000  -0.00049  -0.00049  -1.22231
   D11        2.93508   0.00000   0.00000   0.00171   0.00171   2.93680
   D12        0.89862  -0.00001   0.00000   0.00065   0.00066   0.89928
   D13        2.98573  -0.00002   0.00000   0.00132   0.00131   2.98704
   D14        0.85944   0.00005   0.00000   0.00352   0.00352   0.86296
   D15       -1.17702   0.00004   0.00000   0.00246   0.00246  -1.17455
   D16        0.91932  -0.00024   0.00000  -0.01150  -0.01151   0.90782
   D17       -1.15826  -0.00017   0.00000  -0.01249  -0.01248  -1.17075
   D18        3.11167  -0.00023   0.00000  -0.01276  -0.01277   3.09891
   D19       -2.30542  -0.00014   0.00000  -0.00688  -0.00688  -2.31230
   D20        1.90018  -0.00006   0.00000  -0.00786  -0.00786   1.89232
   D21       -0.11307  -0.00012   0.00000  -0.00814  -0.00814  -0.12122
   D22       -0.91844   0.00002   0.00000  -0.00222  -0.00221  -0.92065
   D23       -2.94265  -0.00004   0.00000  -0.00280  -0.00279  -2.94544
   D24        1.34180  -0.00031   0.00000  -0.00696  -0.00695   1.33485
   D25        1.13808   0.00007   0.00000  -0.00098  -0.00098   1.13710
   D26       -0.88613   0.00002   0.00000  -0.00156  -0.00156  -0.88769
   D27       -2.88486  -0.00026   0.00000  -0.00571  -0.00572  -2.89058
   D28       -3.11558   0.00010   0.00000  -0.00091  -0.00091  -3.11649
   D29        1.14340   0.00005   0.00000  -0.00149  -0.00149   1.14191
   D30       -0.85534  -0.00023   0.00000  -0.00565  -0.00565  -0.86099
   D31        0.91716   0.00025   0.00000   0.01407   0.01407   0.93122
   D32        3.07610   0.00006   0.00000   0.00819   0.00819   3.08429
   D33       -1.20177   0.00008   0.00000   0.01021   0.01021  -1.19156
   D34        2.92442   0.00020   0.00000   0.01609   0.01608   2.94050
   D35       -1.19982   0.00002   0.00000   0.01020   0.01020  -1.18961
   D36        0.80550   0.00003   0.00000   0.01222   0.01223   0.81772
   D37       -1.31453   0.00001   0.00000   0.01484   0.01483  -1.29970
   D38        0.84441  -0.00017   0.00000   0.00895   0.00895   0.85337
   D39        2.84973  -0.00016   0.00000   0.01098   0.01098   2.86070
   D40        0.90672   0.00016   0.00000   0.04726   0.04727   0.95399
   D41        2.93567   0.00016   0.00000   0.04758   0.04759   2.98326
   D42       -1.15854   0.00011   0.00000   0.04546   0.04547  -1.11307
   D43        3.10801   0.00022   0.00000   0.04444   0.04443  -3.13075
   D44       -1.14623   0.00022   0.00000   0.04476   0.04475  -1.10148
   D45        1.04274   0.00017   0.00000   0.04264   0.04263   1.08537
   D46       -1.10463   0.00002   0.00000   0.04261   0.04261  -1.06202
   D47        0.92432   0.00002   0.00000   0.04293   0.04293   0.96725
   D48        3.11330  -0.00003   0.00000   0.04081   0.04080  -3.12908
   D49       -0.90192  -0.00017   0.00000  -0.01213  -0.01212  -0.91404
   D50        1.21115  -0.00020   0.00000  -0.01420  -0.01420   1.19695
   D51       -3.02190  -0.00019   0.00000  -0.01312  -0.01311  -3.03501
   D52       -3.05249   0.00005   0.00000  -0.00596  -0.00596  -3.05845
   D53       -0.93942   0.00002   0.00000  -0.00804  -0.00804  -0.94746
   D54        1.11072   0.00003   0.00000  -0.00695  -0.00695   1.10377
   D55        1.20930   0.00003   0.00000  -0.00819  -0.00819   1.20111
   D56       -2.96082  -0.00000   0.00000  -0.01027  -0.01027  -2.97109
   D57       -0.91068   0.00001   0.00000  -0.00918  -0.00918  -0.91986
   D58       -2.64256   0.00077   0.00000   0.06412   0.06412  -2.57844
   D59        1.57360   0.00048   0.00000   0.06072   0.06072   1.63432
   D60       -0.47894   0.00050   0.00000   0.06056   0.06056  -0.41838
   D61        0.02746   0.00039   0.00000   0.01577   0.01578   0.04324
   D62       -3.10621   0.00019   0.00000   0.00098   0.00098  -3.10523
   D63       -3.13381  -0.00020   0.00000  -0.01453  -0.01452   3.13485
         Item               Value     Threshold  Converged?
 Maximum Force            0.001081     0.000450     NO 
 RMS     Force            0.000242     0.000300     YES
 Maximum Displacement     0.248131     0.001800     NO 
 RMS     Displacement     0.032817     0.001200     NO 
 Predicted change in Energy=-1.116939D-04
 GradGradGradGradGradGradGradGradGradGradGradGradGradGradGradGradGradGrad

                          Input orientation:                          
 ---------------------------------------------------------------------
 Center     Atomic      Atomic             Coordinates (Angstroms)
 Number     Number       Type             X           Y           Z
 ---------------------------------------------------------------------
      1          6           0       -0.901201    1.929269   -0.081349
      2          6           0       -1.404877    0.495202   -0.172216
      3          6           0       -0.623750   -0.359628   -1.176020
      4          6           0        0.904073   -0.327776   -0.972193
      5          6           0        1.377095    1.143733   -0.936531
      6          6           0        0.629477    2.019641    0.084340
      7          1           0       -1.197143    2.430690   -1.015971
      8          1           0       -1.432392    2.424814    0.735556
      9          1           0        1.345504   -0.800838   -1.859673
     10          1           0        2.454708    1.168409   -0.732884
     11          1           0        1.246744    1.572022   -1.940598
     12          1           0        0.889001    1.711578    1.099668
     13          1           0        0.946137    3.063090   -0.029924
     14          1           0       -0.847638    0.054773   -2.171085
     15          8           0       -2.379498    0.082036    0.419355
     16          6           0        1.362817   -1.193031    0.215699
     17          1           0        0.970782   -2.204983    0.059178
     18          1           0        2.463491   -1.259033    0.207756
     19          6           0        1.576439   -0.898413    2.531347
     20          7           0        0.856713   -0.727479    1.501449
     21          1           0        2.582754   -1.345048    2.503351
     22          1           0        1.196824   -0.586468    3.505205
     23          9           0       -1.087634   -1.673286   -1.180367
 ---------------------------------------------------------------------
                    Distance matrix (angstroms):
                    1          2          3          4          5
     1  C    0.000000
     2  C    1.522661   0.000000
     3  C    2.552320   1.532488   0.000000
     4  C    3.024379   2.578470   1.541688   0.000000
     5  C    2.557154   2.957050   2.514127   1.546079   0.000000
     6  C    1.542269   2.555060   2.969850   2.588828   1.538937
     7  H    1.101146   2.121601   2.853117   3.467876   2.879110
     8  H    1.093189   2.132653   3.472916   3.994024   3.511447
     9  H    3.957727   3.477331   2.130730   1.098303   2.152799
    10  H    3.502218   3.957771   3.465280   2.168019   1.096964
    11  H    2.863232   3.364196   2.795460   2.159737   1.099351
    12  H    2.155693   2.891217   3.428858   2.907198   2.169514
    13  H    2.168145   3.484475   3.936125   3.519605   2.166009
    14  H    2.807775   2.121314   1.100912   2.156890   2.767561
    15  O    2.418334   1.212661   2.413077   3.589734   4.132508
    16  C    3.868174   3.265078   2.564740   1.539546   2.605438
    17  H    4.540497   3.603929   2.733785   2.142915   3.517162
    18  H    4.644352   4.264504   3.500689   2.165942   2.874532
    19  C    4.578282   4.259068   4.344616   3.612824   4.029427
    20  N    3.557221   3.067717   3.081546   2.506174   3.117047
    21  H    5.435050   5.142604   4.979005   3.991519   4.413664
    22  H    4.857367   4.632740   5.027904   4.494410   4.770232
    23  F    3.771075   2.412333   1.393164   2.412598   3.750993
                    6          7          8          9         10
     6  C    0.000000
     7  H    2.171678   0.000000
     8  H    2.199898   1.767264   0.000000
     9  H    3.499569   4.197578   4.985654   0.000000
    10  H    2.173458   3.874211   4.341015   2.525454   0.000000
    11  H    2.163737   2.750424   3.881601   2.376292   1.755179
    12  H    1.092312   3.056967   2.455636   3.908750   2.470773
    13  H    1.096411   2.442513   2.578906   4.293881   2.521856
    14  H    3.336093   2.664850   3.795734   2.374641   3.770158
    15  O    3.594506   2.995714   2.546685   4.455230   5.086984
    16  C    3.297924   4.604537   4.601331   2.112175   2.769194
    17  H    4.238463   5.229275   5.260015   2.407079   3.769506
    18  H    3.758795   5.339645   5.387690   2.394598   2.603336
    19  C    3.924235   5.599924   4.829261   4.398171   3.962110
    20  N    3.099436   4.530978   3.970333   3.397269   3.337697
    21  H    4.581270   6.397613   5.784320   4.567595   4.099644
    22  H    4.337742   5.939306   4.863286   5.371217   4.756392
    23  F    4.264465   4.108728   4.536964   2.672599   4.563295
                   11         12         13         14         15
    11  H    0.000000
    12  H    3.064421   0.000000
    13  H    2.442197   1.762336   0.000000
    14  H    2.596460   4.056937   4.105140   0.000000
    15  O    4.575923   3.715013   4.488695   3.009604   0.000000
    16  C    3.508362   3.072890   4.283517   3.484230   3.958811
    17  H    4.282643   4.053241   5.268885   3.658855   4.072414
    18  H    3.756431   3.478370   4.586895   4.283520   5.029690
    19  C    5.119574   3.055214   4.759296   5.375646   4.590340
    20  N    4.157826   2.472139   4.089195   4.123618   3.507036
    21  H    5.481141   3.765911   5.341131   5.964682   5.568083
    22  H    5.858186   3.341015   5.087166   6.067230   4.770686
    23  F    4.069312   4.534639   5.281383   2.006317   2.703549
                   16         17         18         19         20
    16  C    0.000000
    17  H    1.096466   0.000000
    18  H    1.102680   1.773436   0.000000
    19  C    2.344069   2.861043   2.513162   0.000000
    20  N    1.458091   2.067891   2.130241   1.268036   0.000000
    21  H    2.597058   3.051545   2.300300   1.101334   2.089119
    22  H    3.349078   3.813894   3.595825   1.090787   2.037302
    23  F    2.860831   2.460945   3.835228   4.634062   3.444876
                   21         22         23
    21  H    0.000000
    22  H    1.870817   0.000000
    23  F    5.210496   5.324895   0.000000
 Symmetry turned off by external request.
 Stoichiometry    C8H12FNO
 Framework group  C1[X(C8H12FNO)]
 Deg. of freedom    63
 Full point group                 C1      NOp   1
 Rotational constants (GHZ):           1.2663954           1.0129400           0.8900028
 Standard basis: 6-31+G(d,p) (6D, 7F)
   269 basis functions,   436 primitive gaussians,   269 cartesian basis functions
    42 alpha electrons       42 beta electrons
       nuclear repulsion energy       656.1378663492 Hartrees.
 NAtoms=   23 NActive=   23 NUniq=   23 SFac= 1.00D+00 NAtFMM=   60 NAOKFM=F Big=F
 Integral buffers will be    131072 words long.
 Raffenetti 2 integral format.
 Two-electron integral symmetry is turned off.
 One-electron integrals computed using PRISM.
 NBasis=   269 RedAO= T EigKep=  2.74D-05  NBF=   269
 NBsUse=   269 1.00D-06 EigRej= -1.00D+00 NBFU=   269
 Initial guess from the checkpoint file:  "/scratch/Grace/g03/Gau-17452.chk"
 B after Tr=    -0.010382   -0.006588   -0.004532
         Rot=    0.999998   -0.000498    0.000810    0.001584 Ang=  -0.21 deg.
 ExpMin= 4.38D-02 ExpMax= 7.00D+03 ExpMxC= 1.05D+03 IAcc=2 IRadAn=         4 AccDes= 0.00D+00
 Harris functional with IExCor=  402 and IRadAn=       4 diagonalized for initial guess.
 HarFok:  IExCor=  402 AccDes= 0.00D+00 IRadAn=         4 IDoV= 1 UseB2=F ITyADJ=14
 ICtDFT=  3500011 ScaDFX=  1.000000  1.000000  1.000000  1.000000
 FoFCou: FMM=F IPFlag=           0 FMFlag=      100000 FMFlg1=           0
         NFxFlg=           0 DoJE=T BraDBF=F KetDBF=T FulRan=T
         wScrn=  0.000000 ICntrl=       500 IOpCl=  0 I1Cent=   200000004 NGrid=           0
         NMat0=    1 NMatS0=      1 NMatT0=    0 NMatD0=    1 NMtDS0=    0 NMtDT0=    0
 Symmetry not used in FoFCou.
 Requested convergence on RMS density matrix=1.00D-08 within 128 cycles.
 Requested convergence on MAX density matrix=1.00D-06.
 Requested convergence on             energy=1.00D-06.
 No special actions if energy rises.
 SCF Done:  E(RB3LYP) =  -541.899043245     A.U. after   11 cycles
            NFock= 11  Conv=0.77D-08     -V/T= 2.0093
 Calling FoFJK, ICntrl=      2127 FMM=F ISym2X=0 I1Cent= 0 IOpClX= 0 NMat=1 NMatS=1 NMatT=0.
 -------------------------------------------------------------------
 Center     Atomic                   Forces (Hartrees/Bohr)
 Number     Number              X              Y              Z
 -------------------------------------------------------------------
      1        6          -0.000013179    0.000115282   -0.000002695
      2        6           0.000216766   -0.000500842    0.000641225
      3        6          -0.000040959   -0.000155335   -0.000048570
      4        6          -0.000431357    0.000122988   -0.000279254
      5        6           0.000214453    0.000017916    0.000118534
      6        6          -0.000232179   -0.000020850   -0.000277340
      7        1          -0.000031999    0.000058627   -0.000018624
      8        1          -0.000082914   -0.000069660   -0.000017534
      9        1          -0.000028971   -0.000098431    0.000070941
     10        1           0.000085383   -0.000012582   -0.000088934
     11        1          -0.000000945    0.000035552    0.000082335
     12        1           0.000068775    0.000240962   -0.000024033
     13        1          -0.000021096   -0.000019176    0.000167811
     14        1           0.000055315   -0.000026135   -0.000064681
     15        8          -0.000123282    0.000381283   -0.000498212
     16        6           0.000372780    0.000789606    0.000309144
     17        1          -0.000416771    0.000232554    0.000125620
     18        1           0.000338069   -0.000262359   -0.000094342
     19        6           0.000658033    0.000952280    0.000217296
     20        7          -0.000426330   -0.001401325   -0.000313146
     21        1          -0.000176007   -0.000384248   -0.000016282
     22        1          -0.000042932   -0.000066688   -0.000019168
     23        9           0.000059346    0.000070581    0.000029910
 -------------------------------------------------------------------
 Cartesian Forces:  Max     0.001401325 RMS     0.000316352

 GradGradGradGradGradGradGradGradGradGradGradGradGradGradGradGradGradGrad
 Berny optimization.
 Using GEDIIS/GDIIS optimizer.
 FormGI is forming the generalized inverse of G from B-inverse, IUseBI=4.
 Internal  Forces:  Max     0.000900432 RMS     0.000166760
 Search for a local minimum.
 Step number   2 out of a maximum of  138
 All quantities printed in internal units (Hartrees-Bohrs-Radians)
 Mixed Optimization -- En-DIIS/RFO-DIIS
 Swapping is turned off.
 Update second derivatives using D2CorX and points    1    2
 DE= -1.01D-04 DEPred=-1.12D-04 R= 9.07D-01
 TightC=F SS=  1.41D+00  RLast= 1.82D-01 DXNew= 5.0454D-01 5.4700D-01
 Trust test= 9.07D-01 RLast= 1.82D-01 DXMaxT set to 5.05D-01
 ITU=  1  0
     Eigenvalues ---    0.00258   0.00370   0.00427   0.00501   0.00713
     Eigenvalues ---    0.00772   0.01436   0.02224   0.02633   0.03578
     Eigenvalues ---    0.03867   0.03977   0.04338   0.04577   0.04730
     Eigenvalues ---    0.04807   0.04990   0.05343   0.05713   0.05917
     Eigenvalues ---    0.05971   0.07527   0.08172   0.08529   0.09121
     Eigenvalues ---    0.09500   0.09814   0.11497   0.11752   0.12889
     Eigenvalues ---    0.13948   0.15123   0.15964   0.16008   0.17953
     Eigenvalues ---    0.18303   0.21990   0.22468   0.24809   0.25032
     Eigenvalues ---    0.27105   0.27247   0.27815   0.28312   0.28584
     Eigenvalues ---    0.28994   0.29676   0.33334   0.33537   0.33565
     Eigenvalues ---    0.33580   0.33683   0.33895   0.33987   0.34104
     Eigenvalues ---    0.34301   0.34467   0.34537   0.34742   0.37282
     Eigenvalues ---    0.46789   0.76882   0.98430
 En-DIIS/RFO-DIIS/Sim-DIIS IScMMF=       -3 using points:     2    1
 RFO step:  Lambda=-1.08660335D-04.
 DidBck=F Rises=F RFO-DIIS coefs:    1.23119   -0.23119
 Iteration  1 RMS(Cart)=  0.02064320 RMS(Int)=  0.00029646
 Iteration  2 RMS(Cart)=  0.00039556 RMS(Int)=  0.00004618
 Iteration  3 RMS(Cart)=  0.00000011 RMS(Int)=  0.00004618
 Variable       Old X    -DE/DX   Delta X   Delta X   Delta X     New X
                                 (Linear)    (Quad)   (Total)
    R1        2.87741   0.00005   0.00033   0.00008   0.00045   2.87786
    R2        2.91447   0.00004  -0.00028  -0.00058  -0.00086   2.91361
    R3        2.08086   0.00005   0.00004   0.00019   0.00023   2.08109
    R4        2.06583  -0.00000   0.00008   0.00008   0.00015   2.06598
    R5        2.89598  -0.00002  -0.00012  -0.00035  -0.00044   2.89554
    R6        2.29160  -0.00027  -0.00014  -0.00043  -0.00057   2.29103
    R7        2.91337  -0.00008   0.00004   0.00016   0.00020   2.91357
    R8        2.08042   0.00004  -0.00001   0.00010   0.00009   2.08051
    R9        2.63270  -0.00009   0.00002  -0.00014  -0.00012   2.63258
   R10        2.92167   0.00027  -0.00051   0.00077   0.00023   2.92189
   R11        2.07549  -0.00003   0.00009   0.00003   0.00011   2.07561
   R12        2.90932   0.00033   0.00011   0.00120   0.00132   2.91064
   R13        2.90817   0.00021  -0.00047   0.00028  -0.00023   2.90794
   R14        2.07296   0.00007  -0.00019  -0.00004  -0.00022   2.07274
   R15        2.07747  -0.00006  -0.00025  -0.00046  -0.00072   2.07676
   R16        2.06417  -0.00007  -0.00005  -0.00025  -0.00030   2.06387
   R17        2.07192  -0.00004   0.00007  -0.00003   0.00005   2.07196
   R18        2.07202  -0.00008   0.00057   0.00045   0.00102   2.07304
   R19        2.08376   0.00035   0.00035   0.00139   0.00174   2.08550
   R20        2.75539  -0.00041  -0.00002  -0.00103  -0.00105   2.75434
   R21        2.39624   0.00033   0.00026   0.00070   0.00096   2.39720
   R22        2.08122  -0.00001   0.00001  -0.00000   0.00001   2.08123
   R23        2.06129  -0.00002   0.00007   0.00002   0.00009   2.06138
    A1        1.97132   0.00009   0.00051  -0.00009   0.00047   1.97179
    A2        1.86431   0.00000  -0.00000   0.00018   0.00017   1.86448
    A3        1.88682  -0.00012   0.00005  -0.00038  -0.00036   1.88646
    A4        1.90842  -0.00010  -0.00055  -0.00122  -0.00178   1.90663
    A5        1.95564   0.00013   0.00003   0.00163   0.00164   1.95728
    A6        1.87261  -0.00001  -0.00006  -0.00018  -0.00023   1.87238
    A7        1.97777  -0.00006   0.00065  -0.00072  -0.00020   1.97757
    A8        2.16232  -0.00014  -0.00032  -0.00185  -0.00250   2.15982
    A9        2.14022   0.00018  -0.00025  -0.00056  -0.00115   2.13906
   A10        1.98997   0.00020  -0.00005   0.00188   0.00189   1.99185
   A11        1.85294  -0.00004   0.00020  -0.00036  -0.00016   1.85278
   A12        1.93724  -0.00002  -0.00013   0.00014  -0.00002   1.93722
   A13        1.88942  -0.00016   0.00010  -0.00178  -0.00170   1.88772
   A14        1.92823  -0.00003  -0.00011   0.00009  -0.00003   1.92820
   A15        1.85918   0.00004   0.00002  -0.00021  -0.00018   1.85899
   A16        1.90277  -0.00014  -0.00022   0.00240   0.00215   1.90492
   A17        1.85728  -0.00007   0.00050  -0.00263  -0.00212   1.85516
   A18        1.96676   0.00025   0.00063   0.00346   0.00409   1.97085
   A19        1.88138   0.00011  -0.00002  -0.00092  -0.00095   1.88043
   A20        2.01081   0.00006  -0.00105   0.00064  -0.00040   2.01041
   A21        1.83552  -0.00022   0.00028  -0.00375  -0.00347   1.83205
   A22        1.99148   0.00008  -0.00094   0.00101   0.00006   1.99154
   A23        1.90312  -0.00006  -0.00039  -0.00006  -0.00045   1.90268
   A24        1.88962   0.00003   0.00077  -0.00019   0.00059   1.89020
   A25        1.91907   0.00013  -0.00030   0.00100   0.00070   1.91978
   A26        1.90342  -0.00017   0.00074  -0.00132  -0.00058   1.90284
   A27        1.85175  -0.00001   0.00022  -0.00057  -0.00035   1.85140
   A28        1.95793  -0.00012  -0.00045  -0.00047  -0.00094   1.95699
   A29        1.89562   0.00009  -0.00007   0.00074   0.00067   1.89629
   A30        1.90839  -0.00001   0.00025  -0.00016   0.00010   1.90849
   A31        1.91842   0.00007  -0.00013   0.00093   0.00082   1.91924
   A32        1.90946   0.00010   0.00031   0.00060   0.00090   1.91036
   A33        1.87199  -0.00012   0.00012  -0.00170  -0.00159   1.87040
   A34        1.87760  -0.00030   0.00055  -0.00209  -0.00153   1.87607
   A35        1.90235  -0.00019  -0.00071  -0.00011  -0.00083   1.90152
   A36        1.97960   0.00090   0.00027   0.00423   0.00449   1.98410
   A37        1.87614   0.00016   0.00012   0.00042   0.00054   1.87668
   A38        1.87177  -0.00043  -0.00009  -0.00407  -0.00416   1.86761
   A39        1.95189  -0.00018  -0.00010   0.00124   0.00113   1.95302
   A40        2.15633  -0.00008  -0.00044  -0.00095  -0.00141   2.15492
   A41        2.08180   0.00002   0.00047   0.00067   0.00111   2.08291
   A42        2.04504   0.00007  -0.00003   0.00037   0.00030   2.04534
   A43        2.06707  -0.00008  -0.00100  -0.00148  -0.00248   2.06458
    D1       -0.85149   0.00003   0.00272  -0.00359  -0.00087  -0.85236
    D2        2.36978   0.00025   0.00163   0.03971   0.04131   2.41109
    D3        1.24724  -0.00004   0.00233  -0.00504  -0.00268   1.24456
    D4       -1.81468   0.00018   0.00124   0.03826   0.03950  -1.77518
    D5       -3.02560  -0.00011   0.00229  -0.00534  -0.00303  -3.02863
    D6        0.19568   0.00011   0.00120   0.03796   0.03915   0.23482
    D7        0.85099   0.00001  -0.00017   0.00427   0.00414   0.85513
    D8       -1.27309  -0.00007   0.00034   0.00290   0.00326  -1.26983
    D9        2.97258   0.00004   0.00010   0.00461   0.00473   2.97731
   D10       -1.22231   0.00001  -0.00011   0.00493   0.00483  -1.21748
   D11        2.93680  -0.00006   0.00040   0.00356   0.00395   2.94075
   D12        0.89928   0.00004   0.00015   0.00527   0.00542   0.90470
   D13        2.98704   0.00001   0.00030   0.00494   0.00526   2.99231
   D14        0.86296  -0.00006   0.00081   0.00356   0.00438   0.86735
   D15       -1.17455   0.00004   0.00057   0.00528   0.00585  -1.16871
   D16        0.90782  -0.00001  -0.00266  -0.00257  -0.00523   0.90259
   D17       -1.17075   0.00010  -0.00289  -0.00122  -0.00411  -1.17486
   D18        3.09891   0.00009  -0.00295  -0.00084  -0.00380   3.09511
   D19       -2.31230  -0.00025  -0.00159  -0.04531  -0.04691  -2.35921
   D20        1.89232  -0.00014  -0.00182  -0.04396  -0.04579   1.84653
   D21       -0.12122  -0.00015  -0.00188  -0.04359  -0.04547  -0.16669
   D22       -0.92065   0.00005  -0.00051   0.00721   0.00666  -0.91399
   D23       -2.94544   0.00003  -0.00065   0.00849   0.00782  -2.93761
   D24        1.33485   0.00021  -0.00161   0.01276   0.01114   1.34600
   D25        1.13710   0.00001  -0.00023   0.00670   0.00646   1.14356
   D26       -0.88769  -0.00002  -0.00036   0.00798   0.00762  -0.88006
   D27       -2.89058   0.00017  -0.00132   0.01226   0.01094  -2.87964
   D28       -3.11649  -0.00005  -0.00021   0.00547   0.00524  -3.11125
   D29        1.14191  -0.00008  -0.00034   0.00675   0.00640   1.14831
   D30       -0.86099   0.00011  -0.00131   0.01102   0.00972  -0.85127
   D31        0.93122  -0.00005   0.00325  -0.00711  -0.00387   0.92735
   D32        3.08429   0.00013   0.00189  -0.00515  -0.00325   3.08104
   D33       -1.19156   0.00010   0.00236  -0.00595  -0.00359  -1.19515
   D34        2.94050  -0.00015   0.00372  -0.00946  -0.00576   2.93474
   D35       -1.18961   0.00003   0.00236  -0.00750  -0.00514  -1.19476
   D36        0.81772  -0.00000   0.00283  -0.00830  -0.00548   0.81224
   D37       -1.29970  -0.00032   0.00343  -0.01442  -0.01101  -1.31071
   D38        0.85337  -0.00014   0.00207  -0.01246  -0.01039   0.84297
   D39        2.86070  -0.00017   0.00254  -0.01327  -0.01073   2.84997
   D40        0.95399  -0.00017   0.01093  -0.01924  -0.00831   0.94569
   D41        2.98326  -0.00025   0.01100  -0.01993  -0.00892   2.97434
   D42       -1.11307   0.00003   0.01051  -0.01531  -0.00479  -1.11786
   D43       -3.13075  -0.00010   0.01027  -0.01227  -0.00200  -3.13275
   D44       -1.10148  -0.00017   0.01035  -0.01296  -0.00262  -1.10410
   D45        1.08537   0.00010   0.00986  -0.00834   0.00152   1.08689
   D46       -1.06202  -0.00008   0.00985  -0.01561  -0.00576  -1.06778
   D47        0.96725  -0.00015   0.00992  -0.01630  -0.00638   0.96087
   D48       -3.12908   0.00012   0.00943  -0.01168  -0.00224  -3.13133
   D49       -0.91404  -0.00001  -0.00280   0.00166  -0.00113  -0.91516
   D50        1.19695   0.00008  -0.00328   0.00292  -0.00034   1.19661
   D51       -3.03501   0.00003  -0.00303   0.00175  -0.00126  -3.03627
   D52       -3.05845  -0.00008  -0.00138   0.00025  -0.00113  -3.05957
   D53       -0.94746   0.00000  -0.00186   0.00152  -0.00034  -0.94780
   D54        1.10377  -0.00005  -0.00161   0.00035  -0.00126   1.10251
   D55        1.20111  -0.00004  -0.00189   0.00113  -0.00076   1.20034
   D56       -2.97109   0.00004  -0.00237   0.00240   0.00002  -2.97107
   D57       -0.91986  -0.00001  -0.00212   0.00123  -0.00089  -0.92076
   D58       -2.57844   0.00003   0.01482   0.03141   0.04623  -2.53220
   D59        1.63432   0.00016   0.01404   0.03421   0.04825   1.68257
   D60       -0.41838   0.00033   0.01400   0.03551   0.04951  -0.36887
   D61        0.04324  -0.00044   0.00365  -0.01369  -0.01004   0.03320
   D62       -3.10523  -0.00015   0.00023   0.00250   0.00272  -3.10251
   D63        3.13485   0.00029  -0.00336   0.01587   0.01251  -3.13583
         Item               Value     Threshold  Converged?
 Maximum Force            0.000900     0.000450     NO 
 RMS     Force            0.000167     0.000300     YES
 Maximum Displacement     0.093352     0.001800     NO 
 RMS     Displacement     0.020535     0.001200     NO 
 Predicted change in Energy=-5.521082D-05
 GradGradGradGradGradGradGradGradGradGradGradGradGradGradGradGradGradGrad

                          Input orientation:                          
 ---------------------------------------------------------------------
 Center     Atomic      Atomic             Coordinates (Angstroms)
 Number     Number       Type             X           Y           Z
 ---------------------------------------------------------------------
      1          6           0       -0.904462    1.931831   -0.086232
      2          6           0       -1.414348    0.499914   -0.180270
      3          6           0       -0.628079   -0.359433   -1.175813
      4          6           0        0.898903   -0.330648   -0.964571
      5          6           0        1.377236    1.139074   -0.921611
      6          6           0        0.624407    2.015593    0.094716
      7          1           0       -1.186790    2.433087   -1.025287
      8          1           0       -1.443226    2.431482    0.723287
      9          1           0        1.341785   -0.800923   -1.852884
     10          1           0        2.453179    1.158671   -0.709392
     11          1           0        1.257064    1.570558   -1.925164
     12          1           0        0.873268    1.704794    1.111707
     13          1           0        0.946375    3.058143   -0.012979
     14          1           0       -0.844239    0.052520   -2.173651
     15          8           0       -2.420123    0.105600    0.369955
     16          6           0        1.357414   -1.204070    0.218327
     17          1           0        0.959039   -2.213345    0.056838
     18          1           0        2.458626   -1.275442    0.205415
     19          6           0        1.604265   -0.886734    2.525845
     20          7           0        0.857177   -0.749911    1.509803
     21          1           0        2.622881   -1.302884    2.479109
     22          1           0        1.232959   -0.586616    3.506650
     23          9           0       -1.094887   -1.671989   -1.179702
 ---------------------------------------------------------------------
                    Distance matrix (angstroms):
                    1          2          3          4          5
     1  C    0.000000
     2  C    1.522897   0.000000
     3  C    2.552149   1.532254   0.000000
     4  C    3.023643   2.579941   1.541793   0.000000
     5  C    2.555869   2.958218   2.516233   1.546199   0.000000
     6  C    1.541816   2.555274   2.970474   2.588878   1.538817
     7  H    1.101268   2.122025   2.851838   3.462952   2.873926
     8  H    1.093269   2.132652   3.472787   3.995472   3.511554
     9  H    3.954065   3.476505   2.129249   1.098363   2.152235
    10  H    3.501408   3.958749   3.466459   2.167709   1.096847
    11  H    2.860836   3.365616   2.800027   2.160000   1.098972
    12  H    2.155673   2.890351   3.427510   2.907682   2.169886
    13  H    2.167843   3.485045   3.938390   3.520183   2.166582
    14  H    2.809405   2.121027   1.100960   2.155745   2.771851
    15  O    2.416704   1.212359   2.411862   3.603777   4.141998
    16  C    3.878493   3.277973   2.568894   1.540242   2.605796
    17  H    4.547042   3.612612   2.734111   2.142765   3.517238
    18  H    4.656396   4.277917   3.503514   2.166619   2.875670
    19  C    4.589223   4.284610   4.354731   3.604133   4.005046
    20  N    3.583635   3.094874   3.093703   2.509991   3.122579
    21  H    5.430147   5.159613   4.981696   3.971936   4.368029
    22  H    4.880568   4.667137   5.043861   4.490983   4.754820
    23  F    3.770870   2.412070   1.393100   2.412607   3.752343
                    6          7          8          9         10
     6  C    0.000000
     7  H    2.170056   0.000000
     8  H    2.200720   1.767278   0.000000
     9  H    3.498649   4.187772   4.984113   0.000000
    10  H    2.173778   3.869535   4.342187   2.526416   0.000000
    11  H    2.162921   2.743384   3.879052   2.374094   1.754549
    12  H    1.092153   3.056304   2.458676   3.909850   2.471998
    13  H    1.096436   2.442511   2.577787   4.293483   2.522586
    14  H    3.340070   2.665179   3.796116   2.368535   3.773671
    15  O    3.604580   2.980772   2.547332   4.462595   5.101277
    16  C    3.304362   4.609605   4.616904   2.110139   2.764762
    17  H    4.242326   5.231148   5.271570   2.405923   3.766969
    18  H    3.769287   5.343863   5.406841   2.389372   2.600347
    19  C    3.910756   5.605510   4.852523   4.387428   3.920599
    20  N    3.115232   4.553676   4.003964   3.397810   3.333877
    21  H    4.548793   6.383718   5.793240   4.545254   4.031698
    22  H    4.333949   5.959215   4.900815   5.364920   4.723343
    23  F    4.263611   4.109007   4.536649   2.673817   4.563178
                   11         12         13         14         15
    11  H    0.000000
    12  H    3.063969   0.000000
    13  H    2.442517   1.761198   0.000000
[...]
 46,-0.00003871,-0.00100517,-0.00097591,-0.00005375,0.00054851,0.000155
 37,-0.00015697,-0.00008834,0.00050950,0.00016923,0.00017037,-0.0000914
 6,-0.00016138,0.00016219,-0.00000296,-0.00003356,0.00006766,0.00001084
 ,-0.00001152,-0.00000308,-0.00001801,-0.01522157,0.09590328,0.00077676
 ,-0.00053874,0.00109139,-0.00425651,0.00923537,-0.02178489,-0.04695789
 ,0.07886605,-0.26317701,-0.00043228,0.00165709,-0.00377443,0.00004260,
 0.00027440,-0.00036247,-0.00010835,0.00006585,0.00009641,-0.00000228,-
 0.00115717,0.00045635,0.00030666,-0.00011526,0.00039617,0.00008384,-0.
 00003412,0.00146976,-0.00004319,-0.00027098,0.00024712,-0.00020396,-0.
 00046737,0.00036805,0.00011641,0.00010799,0.00009084,0.00003384,-0.000
 00911,-0.00002678,0.04609573,-0.08808931,0.27673905,-0.01465200,-0.026
 97260,0.01887733,-0.52750259,-0.18882486,0.26769388,-0.03181499,-0.009
 57318,0.03728072,0.00249923,0.00140638,0.00329367,0.00028724,0.0007176
 2,-0.00034556,0.00227132,-0.00199840,0.00043013,-0.00200446,-0.0034322
 7,-0.00059337,0.00016459,0.00067494,-0.00170949,-0.00219032,0.00045677
 ,-0.00034177,-0.00037910,-0.00019865,0.00002149,0.00018117,0.00008238,
 -0.00001991,-0.00050781,0.00016857,-0.00027174,-0.00150510,-0.00019125
 ,-0.00045124,-0.00266469,0.00330544,0.00261098,0.57458495,-0.04661034,
 -0.01168052,0.02047287,-0.18797495,-0.17226298,0.09513609,0.00526527,0
 .01447991,-0.00675035,0.00162675,-0.00183200,-0.00154652,-0.00014219,-
 0.00110746,-0.00068031,0.00227515,-0.00863957,0.00145173,-0.00135050,-
 0.00251952,0.00075291,0.00063589,0.00518267,0.00093252,0.00084550,0.00
 021148,0.00031070,-0.00027309,0.00053496,0.00040664,0.00006748,0.00010
 573,0.00010064,-0.00049240,-0.00000334,-0.00032551,-0.00356296,-0.0001
 0984,-0.00051917,0.00170445,-0.00188268,-0.00274764,0.22246165,0.17038
 828,0.01429773,0.00825629,0.01463658,0.26792856,0.09650995,-0.22316390
 ,0.04657355,0.00377597,-0.00970895,-0.00247387,-0.00480883,-0.00706139
 ,-0.00063577,-0.00113833,0.00021422,-0.00290182,0.00307735,0.00046534,
 -0.00227084,-0.00355818,0.00086517,-0.00065145,0.00290216,0.00094845,0
 .00321252,-0.00023701,0.00060652,0.00021333,0.00038996,0.00003060,-0.0
 0007272,-0.00002978,-0.00001804,0.00071250,0.00022188,0.00012739,0.001
 17552,0.00004154,0.00032746,-0.00071400,-0.00000180,0.00039734,-0.3208
 7119,-0.10771846,0.21935536,-0.00038640,0.00041815,-0.00018694,0.00095
 228,-0.00025790,-0.00272019,-0.01446216,0.02123542,-0.02902405,-0.0916
 5015,0.01970001,-0.02152422,0.00402076,-0.00469636,0.00995942,-0.00063
 449,0.00034476,-0.00035552,0.00000316,-0.00002747,0.00010196,0.0000769
 4,0.00003650,-0.00000330,0.00331147,-0.00726902,0.01162496,0.00036342,
 -0.00112483,0.00077277,-0.00056721,-0.00386624,0.00015749,0.00018648,0
 .00011780,-0.00003031,0.00015498,-0.00021726,-0.00005126,-0.00589981,-
 0.00001171,-0.00040071,-0.00075923,-0.00043678,0.00104477,0.57257644,0
 .00013993,-0.00026692,-0.00028071,0.00146943,-0.00096542,-0.00063019,0
 .00611276,0.00246038,0.00188593,0.01880544,-0.11162375,0.04081605,0.00
 731457,-0.01990870,0.02670223,0.00046718,0.00114504,0.00101824,-0.0001
 2869,0.00006503,-0.00001744,0.00003203,0.00007093,0.00002104,-0.003193
 98,0.00657334,-0.01109717,0.00111476,0.00200083,0.00017278,-0.00107165
 ,-0.00511053,-0.00011945,0.00013693,-0.00047481,-0.00096944,-0.0002878
 9,0.00048434,-0.00033774,-0.00161011,0.00037268,-0.00047816,-0.0007620
 0,-0.00003714,0.00067742,0.03806172,0.52470812,0.00014890,-0.00021302,
 -0.00041284,-0.00039193,0.00025968,0.00407553,-0.00983686,-0.00060456,
 -0.00520583,-0.01846606,0.04086678,-0.12419459,0.00322986,0.00432495,0
 .00205419,-0.00001383,-0.00002321,0.00168291,-0.00016960,0.00011428,-0
 .00011677,0.00022977,-0.00021413,-0.00005516,-0.00844787,0.01558260,-0
 .02261806,-0.00046283,-0.00028816,0.00023013,-0.00086333,-0.00203615,0
 .00127130,-0.00012267,-0.00082483,-0.00042245,0.00009461,-0.00004040,-
 0.00081761,0.00072401,-0.00024018,0.00123280,0.00087347,0.00015703,-0.
 00213194,0.01815517,0.01213029,0.45712165,0.00007570,-0.00013509,-0.00
 008150,-0.00023252,0.00029970,0.00030290,0.00030804,0.00169183,-0.0000
 1855,0.00369026,0.01046312,0.00020739,-0.00063904,0.00061382,-0.001636
 69,0.00011661,-0.00024517,0.00012347,-0.00001353,-0.00000782,-0.000017
 52,-0.00000221,-0.00005017,-0.00001187,0.00015068,-0.00052472,0.000542
 45,0.00027864,0.00019191,-0.00001442,0.00038297,0.00044104,-0.00012466
 ,-0.00004002,-0.00004508,0.00002392,-0.00001640,-0.00002545,-0.0000099
 0,0.00023139,-0.00027921,0.00006272,0.00011191,-0.00019144,-0.00011841
 ,-0.09047798,-0.09511416,-0.01085734,0.09278991,-0.00009487,0.00007828
 ,-0.00001225,0.00010625,-0.00043702,-0.00001484,-0.00147116,-0.0023786
 4,-0.00023986,-0.00620429,-0.02003356,0.00004638,0.00137909,-0.0000621
 4,0.00401721,-0.00012096,0.00032841,0.00009458,-0.00000942,0.00001937,
 0.00001960,0.00005869,0.00004409,0.00000320,-0.00008788,0.00077710,-0.
 00000759,0.00003454,0.00024463,-0.00009487,-0.00029210,-0.00124113,-0.
 00003626,0.00004233,0.00004729,-0.00004948,0.00004696,-0.00002981,-0.0
 0004793,-0.00011859,0.00008754,-0.00007089,0.00004382,0.00023853,-0.00
 000619,-0.09272738,-0.26105319,-0.03204162,0.10058724,0.28520892,0.000
 09816,-0.00008155,0.00006759,-0.00006591,0.00018404,0.00005304,0.00048
 544,0.00114199,0.00084560,0.00927700,0.02475742,0.00277077,-0.00256111
 ,0.00169737,-0.00398456,0.00023105,0.00008561,-0.00044922,0.00004157,-
 0.00001374,-0.00000985,-0.00009046,-0.00002595,-0.00000572,0.00061319,
 -0.00027924,0.00071285,-0.00015817,-0.00044349,-0.00002182,0.00019736,
 0.00153914,-0.00020912,-0.00006177,0.00007780,0.00006318,-0.00008718,0
 .00007157,0.00017918,0.00030208,-0.00010888,0.00000280,-0.00004987,-0.
 00010727,0.00001684,-0.01165044,-0.03165910,-0.04737709,0.01431516,0.0
 3646360,0.06463032,-0.00000206,-0.00002725,-0.00011906,0.00043577,-0.0
 0060407,0.00016262,0.00112898,0.00059687,-0.00142686,-0.01001795,-0.00
 083322,-0.00025139,0.00028203,-0.00055370,0.00050836,0.00009115,0.0000
 9982,0.00023864,0.00000705,0.00003795,0.00000627,0.00007706,0.00001132
 ,0.00002723,0.00038732,-0.00005774,-0.00077114,0.00054147,0.00080034,-
 0.00000703,0.00031914,-0.00004055,-0.00001447,-0.00013573,-0.00012270,
 -0.00002074,0.00002712,0.00006086,-0.00005959,-0.00061855,0.00002354,-
 0.00009063,-0.00023150,0.00020941,-0.00009042,-0.28384631,0.01427022,-
 0.00331703,-0.01158011,0.00117266,-0.00068888,0.31267141,-0.00002797,-
 0.00002044,0.00005808,-0.00037044,0.00039505,0.00040647,-0.00049618,-0
 .00355342,0.00300537,0.02031393,-0.00235155,0.00196120,0.00131013,0.00
 124511,-0.00065536,0.00003208,-0.00016688,-0.00007457,-0.00000237,-0.0
 0001058,-0.00001604,-0.00004993,-0.00002165,-0.00001101,-0.00051652,0.
 00067714,-0.00044859,-0.00065044,-0.00028387,-0.00004853,-0.00029157,0
 .00027911,-0.00010537,0.00008260,0.00001106,-0.00003469,-0.00001375,-0
 .00002130,-0.00000456,0.00110468,0.00009262,0.00014639,0.00022987,-0.0
 0002780,-0.00014017,0.01249397,-0.05057226,0.00108267,-0.02813772,0.00
 429205,0.00009425,-0.01967528,0.04925842,-0.00006180,0.00011781,0.0000
 4788,0.00055941,-0.00080070,-0.00178812,-0.00044611,0.00403948,-0.0030
 0580,-0.02487052,0.00185462,-0.00081951,-0.00018057,-0.00126908,0.0005
 9171,-0.00006605,-0.00005698,-0.00007737,0.00001736,-0.00003094,0.0000
 5218,-0.00000311,0.00010892,0.00001694,-0.00019931,-0.00042740,0.00041
 480,0.00052561,0.00024894,0.00016529,0.00012823,-0.00016441,-0.0000024
 8,0.00011482,0.00011237,0.00004128,0.00001126,0.00002811,0.00009501,-0
 .00136221,0.00001169,-0.00029634,-0.00041383,0.00007376,0.00090632,-0.
 00349449,0.00051682,-0.04948031,-0.00375078,0.00085843,0.00066546,-0.0
 0256106,0.00137808,0.06117908,-0.00005061,-0.00002722,0.00006757,0.000
 68422,-0.00047231,0.00045080,-0.00011138,-0.00002248,-0.00044027,-0.00
 037209,0.00023073,0.00294961,0.00051610,0.00013469,-0.00037526,-0.0001
 0197,-0.00012091,-0.00025115,0.00010410,0.00005277,0.00009523,-0.00003
 973,0.00005544,-0.00003420,0.00041477,-0.00037656,0.00076912,-0.000136
 49,-0.00001763,-0.00011315,-0.00011865,0.00002571,0.00015761,0.0000477
 0,0.00069170,0.00005873,0.00007943,-0.00021900,0.00016325,0.00003474,-
 0.00008996,-0.00005273,-0.00028081,0.00011478,-0.00001612,-0.00381712,
 0.00337034,0.00957577,0.00102253,0.00185702,0.00272745,0.00266806,0.00
 123042,0.00782467,0.62615727,0.00000465,0.00000235,0.00015871,-0.00026
 436,0.00016430,-0.00047391,0.00030737,0.00006818,0.00013125,0.00193520
 ,-0.00137464,-0.00014907,-0.00037215,0.00003748,-0.00028731,0.00021006
 ,-0.00035684,-0.00052410,0.00004148,-0.00000222,-0.00000446,0.00001417
 ,-0.00001817,0.00001043,-0.00028715,0.00052053,-0.00060270,0.00004129,
 0.00004934,-0.00004279,-0.00000574,0.00019215,-0.00001270,0.00033581,-
 0.00115072,0.00132140,0.00001209,0.00002302,0.00018163,-0.00011313,0.0
 0006379,0.00002332,0.00017668,-0.00005848,0.00018212,-0.00491035,0.001
 58251,-0.01794180,0.00105393,-0.00022333,-0.00278382,-0.00145196,-0.00
 007341,-0.00199499,-0.17880937,0.21889158,-0.00030200,0.00013542,0.000
 21581,-0.00058458,0.00050148,-0.00142989,0.00052562,-0.00030447,-0.000
 43714,0.00290272,-0.00432357,-0.00241906,-0.00008324,-0.00008960,-0.00
 043330,0.00009819,-0.00030756,-0.00013233,0.00009329,-0.00009291,0.000
 06404,0.00000817,0.00005426,-0.00001357,-0.00038540,0.00101348,-0.0010
 6827,0.00008593,0.00013097,-0.00008537,0.00004963,0.00019226,0.0001943
 5,-0.00011653,0.00127214,0.00035918,-0.00006832,-0.00030070,0.00045737
 ,-0.00025449,0.00011509,0.00008052,0.00051257,-0.00022271,0.00065730,-
 0.02831115,-0.00187458,-0.05377958,0.00109010,0.00155889,-0.00134277,-
 0.00399107,0.00290105,0.00341715,0.14801611,0.06014661,0.83338655,0.00
 000108,0.00009008,-0.00006893,-0.00229020,-0.00102011,0.00128491,0.000
 52561,-0.00131402,-0.00009648,0.00529067,-0.00556361,-0.00648997,-0.00
 025775,-0.00005772,0.00037931,0.00011949,0.00021407,-0.00030197,0.0000
 7291,0.00003460,-0.00000571,0.00006175,-0.00007178,0.00003351,0.000193
 32,0.00157158,-0.00278469,0.00011014,0.00021392,0.00003376,-0.00001451
 ,0.00015367,-0.00006063,0.00020950,0.00035705,-0.00008724,0.00002752,0
 .00014236,0.00008693,0.00000489,-0.00002698,-0.00008357,0.00014040,0.0
 0132094,-0.00196188,-0.09395029,0.01006405,0.01684757,0.00541926,-0.00
 310294,-0.01200364,-0.01383027,0.01494182,0.03116581,-0.28319547,0.057
 11127,-0.23306634,0.39724232,-0.00052371,0.00051230,0.00004824,-0.0011
 2110,-0.00146374,-0.00041718,-0.00110508,-0.00130094,-0.00019292,-0.01
 119450,0.01251540,0.01343050,0.00006245,0.00066915,-0.00052198,-0.0009
 4233,-0.00367022,-0.00108282,0.00013430,-0.00001392,0.00017541,-0.0000
 2376,0.00012315,-0.00003127,0.00181236,-0.00219126,0.00498189,-0.00013
 170,-0.00011831,-0.00006604,0.00008801,0.00009046,-0.00001864,0.001102
 98,-0.00169172,0.00263010,0.00024278,-0.00066208,0.00141415,0.00010102
 ,0.00009422,-0.00012593,0.00084537,0.00101140,-0.00027312,0.02237213,-
 0.09279984,-0.02020950,0.01048210,-0.00830552,-0.03108467,0.00667002,-
 0.00027969,-0.00584068,0.04693859,-0.06281317,0.02607018,-0.08453332,0
 .13995664,0.00030383,-0.00004199,-0.00033153,0.00184291,-0.00155451,0.
 00032059,0.00069188,0.00100159,0.00229402,0.00756082,-0.00939633,-0.03
 612882,-0.00017375,-0.00154107,0.00267415,-0.00021444,0.00214436,0.000
 58346,-0.00004987,0.00009577,0.00003384,-0.00010252,0.00010647,0.00001
 570,-0.00124524,0.00329954,-0.00373626,0.00043925,0.00011364,0.0001348
 5,0.00003444,-0.00051069,0.00020267,-0.00016265,0.00064277,-0.00116355
 ,-0.00006317,0.00050888,-0.00044990,0.00051443,-0.00001804,0.00011686,
 -0.00207860,0.00035389,0.00048510,0.06444843,-0.04023041,-0.16595270,0
 .00065584,-0.00887298,-0.01551499,0.01032695,-0.00881968,-0.01319648,-
 0.28288376,0.04842244,-0.45316052,0.23922481,0.00842494,0.71787537,0.0
 0013810,-0.00009269,-0.00002112,0.00029630,-0.00024022,0.00060721,0.00
 005349,0.00013619,0.00043700,0.00043673,0.00016210,0.00020555,-0.00027
 629,-0.00005187,0.00014166,0.00009631,0.00023599,0.00021808,-0.0000101
 5,0.00004142,-0.00003546,0.00002606,-0.00003650,0.00001500,0.00001850,
 0.00002324,-0.00010543,0.00011130,0.00000155,-0.00002276,0.00005627,-0
 .00000720,-0.00004798,-0.00019678,-0.00022137,-0.00013716,-0.00001492,
 0.00012839,-0.00018382,0.00009838,-0.00003579,-0.00002201,-0.00023409,
 0.00007077,-0.00025270,0.00204593,-0.00433324,0.00556360,-0.00002532,-
 0.00044095,-0.00090588,0.00056563,-0.00062527,-0.00225911,-0.25030434,
 0.08689405,0.02175364,-0.02375171,0.01990500,-0.01380629,0.27595318,0.
 00006314,-0.00010821,-0.00003213,0.00036196,0.00053782,-0.00007891,0.0
 0017023,0.00007856,-0.00013304,-0.00012237,0.00055674,0.00048896,0.000
 00262,0.00010035,0.00017694,0.00020263,0.00034679,0.00030565,-0.000042
 05,-0.00001269,-0.00001871,-0.00001885,-0.00000696,-0.00000553,0.00012
 896,-0.00016514,0.00013309,-0.00005482,-0.00001723,0.00003911,-0.00000
 938,-0.00005173,-0.00004928,-0.00004255,-0.00008372,-0.00033986,-0.000
 07724,0.00007440,-0.00020206,0.00001203,-0.00000219,0.00004704,-0.0001
 2571,-0.00031874,0.00022868,-0.00507992,-0.00937114,-0.00033871,0.0000
 0830,-0.00088419,-0.00151546,-0.00180434,0.00027050,0.00137771,0.08771
 060,-0.08677554,-0.01174394,0.01680104,0.02373439,0.00133110,-0.106600
 30,0.06887673,0.00003177,-0.00003253,-0.00001568,0.00010320,-0.0002495
 5,0.00033275,-0.00000995,-0.00015170,0.00000107,0.00030842,-0.00008229
 ,-0.00018179,0.00002348,-0.00004024,0.00005404,-0.00004912,0.00002719,
 -0.00002751,0.00000804,0.00001941,0.00000833,-0.00000279,0.00000805,-0
 .00000505,0.00001255,0.00002415,-0.00008954,0.00001529,0.00002982,-0.0
 0000962,0.00000502,-0.00001595,0.00001741,-0.00000655,0.00001338,-0.00
 005213,0.00002086,0.00000350,-0.00001637,0.00002283,-0.00004103,-0.000
 04492,-0.00004516,0.00012921,-0.00017932,-0.00536115,0.00413771,0.0039
 1898,-0.00011558,0.00013526,0.00028810,0.00204241,-0.00001071,0.000708
 12,0.02342787,-0.01219568,-0.06582013,-0.03206813,0.00775571,-0.000535
 54,-0.00976264,0.01071713,0.05992336,-0.00001356,0.00000765,-0.0000356
 3,0.00008264,-0.00004573,-0.00022422,0.00006643,-0.00000079,0.00015308
 ,0.00090304,-0.00079681,-0.00106185,-0.00004367,-0.00007160,-0.0000249
 5,-0.00001573,-0.00011946,0.00002941,-0.00001237,-0.00001083,0.0000070
 2,-0.00001246,0.00003036,-0.00000264,-0.00022398,0.00029800,-0.0003909
 7,0.00000708,0.00002570,0.00001082,0.00000838,0.00003104,0.00000570,0.
 00007012,0.00006837,0.00002259,0.00000155,-0.00002702,0.00006321,-0.00
 001028,0.00001141,0.00000531,-0.00008270,-0.00000829,0.00016244,0.0012
 9639,0.00562331,-0.00311814,-0.00006872,0.00019985,0.00083803,0.000954
 97,-0.00030391,-0.00100970,-0.09340801,0.03825716,0.09225034,0.0081319
 4,-0.01148517,-0.02493074,-0.00505054,0.00860615,0.02134624,0.08746803
 ,-0.00006126,0.00004970,-0.00001025,-0.00011211,-0.00010432,-0.0001256
 3,-0.00000113,0.00022751,-0.00005630,0.00042760,-0.00111894,-0.0011282
 2,0.00014633,-0.00010349,-0.00009461,-0.00007727,-0.00030251,0.0000316
 5,-0.00000007,-0.00001045,-0.00001075,0.00001313,-0.00000404,0.0000083
 5,-0.00020794,0.00020718,-0.00035833,-0.00001843,0.00000577,0.00002359
 ,-0.00001634,0.00000481,0.00000965,0.00001867,0.00020298,0.00007282,0.
 00004152,-0.00007363,0.00009788,-0.00006158,-0.00001205,-0.00001021,-0
 .00002170,0.00004737,-0.00000679,0.00500614,0.01529451,-0.00164424,-0.
 00073488,0.00085826,0.00297669,0.00085553,-0.00041334,-0.00011737,0.03
 768445,-0.06868463,-0.07498579,-0.00786577,-0.00494310,0.00534898,0.00
 523208,0.00338903,-0.01025200,-0.04026556,0.05561699,0.00002932,-0.000
 02098,0.00006248,0.00026336,-0.00024183,-0.00018619,0.00009568,0.00010
 632,0.00003760,0.00030456,-0.00061554,-0.00034119,-0.00009898,-0.00013
 270,0.00006046,0.00004684,0.00018092,-0.00020330,0.00002351,0.00000415
 ,0.00001847,-0.00003919,0.00003344,-0.00000217,-0.00012794,0.00026057,
 -0.00025616,0.00000601,-0.00000793,0.00000645,-0.00000412,0.00009597,-
 0.00000033,-0.00000209,-0.00008750,-0.00007146,-0.00002208,0.00007483,
 -0.00001353,-0.00006705,0.00000362,-0.00002714,-0.00020143,0.00005142,
 0.00015433,-0.00310761,-0.00078765,0.00112873,0.00008803,-0.00044774,-
 0.00086524,0.00017405,0.00003907,0.00016561,0.08776299,-0.07357659,-0.
 25889979,0.00039562,-0.00472461,-0.03452964,-0.00129406,-0.00044106,0.
 00175462,-0.08410451,0.08020252,0.29204088,-0.00071248,0.00096571,0.00
 217528,0.00209638,0.00957390,0.00220538,-0.08162757,-0.05743407,-0.000
 65605,-0.01312124,-0.04476403,-0.00087116,-0.00904512,0.00355156,-0.00
 174504,-0.00064162,0.00052439,0.00048636,-0.00010952,-0.00023923,-0.00
 004960,0.00051540,0.00067035,0.00010729,0.00243952,0.00027202,0.000518
 41,-0.00085066,-0.00309927,-0.00022332,0.00017052,0.00003079,0.0002337
 2,0.00011419,-0.00005381,-0.00012777,0.00039114,-0.00015508,-0.0001280
 4,0.00273736,-0.00305480,0.00251927,0.00456858,0.00444491,-0.00228975,
 0.00146290,-0.00048097,0.00062477,-0.00148204,-0.00085790,-0.00080318,
 0.00010532,-0.00057814,0.00033147,0.00020774,-0.00018099,-0.00022319,-
 0.00026060,0.00030358,-0.00033255,-0.00003205,-0.00009013,0.00005312,-
 0.00004855,0.00001861,-0.00012092,0.09312240,0.00655366,-0.00083810,-0
 .00621266,-0.02009147,-0.04535683,0.00205475,-0.05157534,-0.21970174,0
 .00394456,-0.01079277,-0.02026535,-0.00266127,-0.00452715,0.00390145,-
 0.00052350,0.00109191,0.00079628,0.00080301,-0.00005435,0.00044649,0.0
 0004898,-0.00105075,-0.00265539,-0.00031604,-0.00032041,0.00116540,0.0
 0122224,-0.00070786,-0.00178113,-0.00016627,0.00035698,0.00048390,-0.0
 0012864,-0.00015428,-0.00015384,-0.00026634,-0.00026702,-0.00008515,-0
 .00006724,-0.01191253,-0.03597452,0.00369137,0.00153114,0.00827974,0.0
 0165536,0.00083861,-0.00257398,0.00214222,-0.00034205,0.00242406,-0.00
 098631,0.00036229,0.00127514,-0.00002419,0.00005820,-0.00006409,0.0001
 5399,0.00053980,0.00154638,-0.00080866,-0.00014538,-0.00016782,0.00007
 116,-0.00002381,-0.00013363,0.00003128,0.09063259,0.30943274,0.0032249
 2,-0.00057208,-0.00334950,-0.00643593,-0.02812555,0.00138595,0.0035222
 6,0.01011800,-0.06134685,-0.00274342,-0.00553243,0.00197681,-0.0008134
 0,0.00046822,0.00054744,0.00042185,0.00023466,0.00011419,0.00005049,-0
 .00035610,0.00039693,-0.00034965,-0.00143172,0.00013799,-0.00110003,0.
 00041090,0.00018087,-0.00002052,-0.00024510,0.00041465,-0.00022576,-0.
 00060318,0.00029854,-0.00003182,0.00004958,0.00000712,-0.00014322,0.00
 000819,0.00003861,0.01163473,0.03074847,0.00670852,-0.00420107,0.00028
 851,0.00206924,-0.00004361,0.00040348,-0.00015130,-0.00065478,-0.00125
 466,-0.00051535,-0.00007715,-0.00070335,0.00019955,0.00011987,0.000012
 03,0.00018945,-0.00037306,-0.00034176,-0.00003669,-0.00008532,0.000053
 28,-0.00002919,0.00000914,0.00002836,-0.00003348,-0.00168449,-0.003657
 77,0.05079649\\0.00000594,0.00001624,0.00002288,0.00000121,0.00003037,
 -0.00002982,0.00000078,-0.00003343,-0.00000504,0.00001562,0.00000199,-
 0.00003332,0.00001240,-0.00000551,0.00001135,-0.00000714,0.00002164,-0
 .00000149,-0.00000388,-0.00000241,0.00000549,0.00000089,0.00000952,0.0
 0000339,-0.00000510,0.00000013,-0.00001146,0.00000300,0.00000594,0.000
 00148,-0.00000136,-0.00000626,0.00000722,-0.00000527,0.00000551,-0.000
 01892,-0.00000003,0.00000321,-0.00000260,0.00000572,-0.00000355,0.0000
 0811,-0.00002230,-0.00001141,0.00000698,-0.00004332,-0.00001517,0.0000
 0629,0.00001985,-0.00000481,-0.00001680,0.00000077,0.00001971,-0.00000
 309,0.00000097,0.00001576,0.00002924,0.00003170,-0.00002046,0.00000726
 ,-0.00001119,-0.00003431,0.00000899,0.00000868,0.00001599,0.00000515,-
 0.00000795,-0.00000870,-0.00000128\\\@


 KNOWING HOW CONTENTED, FREE, AND JOYFUL IS LIFE IN
 THE REALMS OF SCIENCE, ONE FERVENTLY WISHES THAT
 MANY WOULD ENTER HER PORTALS.
   --  DMITRI IVANOVICH MENDELEEV
 "FIRST PRINCIPLES OF CHEMISTRY", LONGMANS, GREEN,
 AND CO.  LONDON, 1891
 Job cpu time:       0 days  1 hours 12 minutes 32.5 seconds.
 Elapsed time:       0 days  1 hours 12 minutes 35.1 seconds.
 File lengths (MBytes):  RWF=    169 Int=      0 D2E=      0 Chk=      7 Scr=      1
 Normal termination of Gaussian 16 at Tue Apr 16 17:34:46 2019.
