 Entering Gaussian System, Link 0=g16
 Input=H3_scan.com
 Output=H3_scan.log
 Initial command:
 /opt/g16/l1.exe "/scratch/Grace/g03/Gau-47581.inp" -scrdir="/scratch/Grace/g03/"
 Entering Link 1 = /opt/g16/l1.exe PID=     47582.
  
 Copyright (c) 1988,1990,1992,1993,1995,1998,2003,2009,2016,
            Gaussian, Inc.  All Rights Reserved.
  
 This is part of the Gaussian(R) 16 program.  It is based on
 the Gaussian(R) 09 system (copyright 2009, Gaussian, Inc.),
 the Gaussian(R) 03 system (copyright 2003, Gaussian, Inc.),
 the Gaussian(R) 98 system (copyright 1998, Gaussian, Inc.),
 the Gaussian(R) 94 system (copyright 1995, Gaussian, Inc.),
 the Gaussian 92(TM) system (copyright 1992, Gaussian, Inc.),
 the Gaussian 90(TM) system (copyright 1990, Gaussian, Inc.),
 the Gaussian 88(TM) system (copyright 1988, Gaussian, Inc.),
 the Gaussian 86(TM) system (copyright 1986, Carnegie Mellon
 University), and the Gaussian 82(TM) system (copyright 1983,
 Carnegie Mellon University). Gaussian is a federally registered
 trademark of Gaussian, Inc.
  
 This software contains proprietary and confidential information,
 including trade secrets, belonging to Gaussian, Inc.
  
 This software is provided under written license and may be
 used, copied, transmitted, or stored only in accord with that
 written license.
  
 The following legend is applicable only to US Government
 contracts under FAR:
  
                    RESTRICTED RIGHTS LEGEND
  
 Use, reproduction and disclosure by the US Government is
 subject to restrictions as set forth in subparagraphs (a)
 and (c) of the Commercial Computer Software - Restricted
 Rights clause in FAR 52.227-19.
  
 Gaussian, Inc.
 340 Quinnipiac St., Bldg. 40, Wallingford CT 06492
  
  
 ---------------------------------------------------------------
 Warning -- This program may not be used in any manner that
 competes with the business of Gaussian, Inc. or will provide
 assistance to any competitor of Gaussian, Inc.  The licensee
 of this program is prohibited from giving any competitor of
 Gaussian, Inc. access to this program.  By using this program,
 the user acknowledges that Gaussian, Inc. is engaged in the
 business of creating and licensing software in the field of
 computational chemistry and represents and warrants to the
 licensee that it is not a competitor of Gaussian, Inc. and that
 it will not use this program in any manner prohibited above.
 ---------------------------------------------------------------
  

 Cite this work as:
 Gaussian 16, Revision A.03,
 M. J. Frisch, G. W. Trucks, H. B. Schlegel, G. E. Scuseria, 
 M. A. Robb, J. R. Cheeseman, G. Scalmani, V. Barone, 
 G. A. Petersson, H. Nakatsuji, X. Li, M. Caricato, A. V. Marenich, 
 J. Bloino, B. G. Janesko, R. Gomperts, B. Mennucci, H. P. Hratchian, 
 J. V. Ortiz, A. F. Izmaylov, J. L. Sonnenberg, D. Williams-Young, 
 F. Ding, F. Lipparini, F. Egidi, J. Goings, B. Peng, A. Petrone, 
 T. Henderson, D. Ranasinghe, V. G. Zakrzewski, J. Gao, N. Rega, 
 G. Zheng, W. Liang, M. Hada, M. Ehara, K. Toyota, R. Fukuda, 
 J. Hasegawa, M. Ishida, T. Nakajima, Y. Honda, O. Kitao, H. Nakai, 
 T. Vreven, K. Throssell, J. A. Montgomery, Jr., J. E. Peralta, 
 F. Ogliaro, M. J. Bearpark, J. J. Heyd, E. N. Brothers, K. N. Kudin, 
 V. N. Staroverov, T. A. Keith, R. Kobayashi, J. Normand, 
 K. Raghavachari, A. P. Rendell, J. C. Burant, S. S. Iyengar, 
 J. Tomasi, M. Cossi, J. M. Millam, M. Klene, C. Adamo, R. Cammi, 
 J. W. Ochterski, R. L. Martin, K. Morokuma, O. Farkas, 
 J. B. Foresman, and D. J. Fox, Gaussian, Inc., Wallingford CT, 2016.
 
 ******************************************
 Gaussian 16:  ES64L-G16RevA.03 25-Dec-2016
                29-Feb-2020 
 ******************************************
 ------------------------------
 # B3LYP/6-31G(d,p) NoSymm Scan
 ------------------------------
 1/38=1,60=1,172=1/1,8;
 2/12=2,15=1,17=6,18=5,29=3,40=1/2;
 3/5=1,6=6,7=101,11=2,25=1,30=1,74=-5/1,2,3;
 4//1;
 5/5=2,38=5/2;
 6/7=2,8=2,9=2,10=2,18=1,28=1/1;
 1/60=1/8(1);
 99/9=1/99;
 2/15=1,29=3/2;
 3/5=1,6=6,7=101,11=2,25=1,30=1,74=-5/1,2,3;
 4/5=5,16=3,69=1/1;
 5/5=2,38=5/2;
 1/60=1/8(-4);
 99/9=1/99;
 ----------
 scan 2DPES
 ----------
 Symbolic Z-matrix:
 Charge =  0 Multiplicity = 2
 H
 H                    1    B1
 H                    2    B2       1    A
       Variables:
  B1                    0.5    Scan 25    0.1    
  B2                    0.5    Scan 25    0.1    
  A                   180.                       
 
 Scan the potential surface.
 Variable   Value     No. Steps Step-Size
 -------- ----------- --------- ---------
     1       0.500000      25      0.1000
     2       0.500000      25      0.1000
 A total of    676 points will be computed.
 ---------------------------------------------------------------------------------------------------
                            Z-MATRIX (ANGSTROMS AND DEGREES)
   CD    Cent   Atom    N1       Length/X        N2       Alpha/Y        N3        Beta/Z          J
 ---------------------------------------------------------------------------------------------------
      1      1  H 
      2      2  H        1   0.500000(     1)
      3      3  H        2   0.500000(     2)      1  180.000(     3)
 ---------------------------------------------------------------------------------------------------
                         Z-Matrix orientation:                         
 ---------------------------------------------------------------------
 Center     Atomic      Atomic             Coordinates (Angstroms)
 Number     Number       Type             X           Y           Z
 ---------------------------------------------------------------------
      1          1           0        0.000000    0.000000    0.000000
      2          1           0        0.000000    0.000000    0.500000
      3          1           0        0.000000    0.000000    1.000000
 ---------------------------------------------------------------------
                    Distance matrix (angstroms):
                    1          2          3
     1  H    0.000000
     2  H    0.500000   0.000000
     3  H    1.000000   0.500000   0.000000
 Symmetry turned off by external request.
 Stoichiometry    H3(2)
 Framework group  D*H[O(H),C*(H.H)]
 Deg. of freedom     1
 Full point group                 D*H     NOp   8
 Rotational constants (GHZ):           0.0000000        1002.9102089        1002.9102089
 Standard basis: 6-31G(d,p) (6D, 7F)
    15 basis functions,    21 primitive gaussians,    15 cartesian basis functions
     2 alpha electrons        1 beta electrons
       nuclear repulsion energy         2.6458860546 Hartrees.
 NAtoms=    3 NActive=    3 NUniq=    3 SFac= 1.00D+00 NAtFMM=   60 NAOKFM=F Big=F
 Integral buffers will be    131072 words long.
 Raffenetti 2 integral format.
 Two-electron integral symmetry is turned off.
 One-electron integrals computed using PRISM.
 NBasis=    15 RedAO= T EigKep=  5.27D-03  NBF=    15
 NBsUse=    15 1.00D-06 EigRej= -1.00D+00 NBFU=    15
 ExpMin= 1.61D-01 ExpMax= 1.87D+01 ExpMxC= 1.87D+01 IAcc=3 IRadAn=         5 AccDes= 0.00D+00
 Harris functional with IExCor=  402 and IRadAn=       5 diagonalized for initial guess.
 HarFok:  IExCor=  402 AccDes= 0.00D+00 IRadAn=         5 IDoV= 1 UseB2=F ITyADJ=14
 ICtDFT=  3500011 ScaDFX=  1.000000  1.000000  1.000000  1.000000
 FoFCou: FMM=F IPFlag=           0 FMFlag=      100000 FMFlg1=           0
         NFxFlg=           0 DoJE=T BraDBF=F KetDBF=T FulRan=T
         wScrn=  0.000000 ICntrl=       500 IOpCl=  0 I1Cent=   200000004 NGrid=           0
         NMat0=    1 NMatS0=      1 NMatT0=    0 NMatD0=    1 NMtDS0=    0 NMtDT0=    0
 Symmetry not used in FoFCou.
 Initial guess <Sx>= 0.0000 <Sy>= 0.0000 <Sz>= 0.5000 <S**2>= 0.7500 S= 0.5000
 Keep R1 and R2 ints in memory in canonical form, NReq=876181.
 Requested convergence on RMS density matrix=1.00D-08 within 128 cycles.
 Requested convergence on MAX density matrix=1.00D-06.
 Requested convergence on             energy=1.00D-06.
 No special actions if energy rises.
 Integral accuracy reduced to 1.0D-05 until final iterations.
 Initial convergence to 1.0D-05 achieved.  Increase integral accuracy.
 SCF Done:  E(UB3LYP) =  -1.38483572573     A.U. after    9 cycles
            NFock=  9  Conv=0.13D-08     -V/T= 1.5853
 <Sx>= 0.0000 <Sy>= 0.0000 <Sz>= 0.5000 <S**2>= 0.7513 S= 0.5007
 <L.S>= 0.000000000000E+00
 Annihilation of the first spin contaminant:
 S**2 before annihilation     0.7513,   after     0.7500

 **********************************************************************

            Population analysis using the SCF density.

 **********************************************************************

 Alpha  occ. eigenvalues --   -0.76784  -0.13255
 Alpha virt. eigenvalues --    0.19265   0.57618   0.70788   1.42110   1.42110
 Alpha virt. eigenvalues --    1.62563   2.20173   2.20173   3.10891   3.51336
 Alpha virt. eigenvalues --    3.51336   6.61290   7.82192
  Beta  occ. eigenvalues --   -0.71816
  Beta virt. eigenvalues --    0.01992   0.24116   0.58583   0.79258   1.45318
  Beta virt. eigenvalues --    1.45318   1.71119   2.27632   2.27632   3.18575
  Beta virt. eigenvalues --    3.56247   3.56247   6.67906   7.88514
          Condensed to atoms (all electrons):
               1          2          3
     1  H    1.675217   0.244518  -0.875413
     2  H    0.244518   0.422319   0.244518
     3  H   -0.875413   0.244518   1.675217
          Atomic-Atomic Spin Densities.
               1          2          3
     1  H    1.505348   0.002545  -0.941088
     2  H    0.002545  -0.138701   0.002545
     3  H   -0.941088   0.002545   1.505348
 Mulliken charges and spin densities:
               1          2
     1  H   -0.044322   0.566805
     2  H    0.088644  -0.133610
     3  H   -0.044322   0.566805
 Sum of Mulliken charges =  -0.00000   1.00000
 Mulliken charges and spin densities with hydrogens summed into heavy atoms:
               1          2
 Electronic spatial extent (au):  <R**2>=             11.5629
 Charge=             -0.0000 electrons
 Dipole moment (field-independent basis, Debye):
    X=              0.0000    Y=             -0.0000    Z=             -0.0000  Tot=              0.0000
 Quadrupole moment (field-independent basis, Debye-Ang):
   XX=             -2.5846   YY=             -2.5846   ZZ=             -4.3792
   XY=             -0.0000   XZ=              0.0000   YZ=             -0.0000
 Traceless Quadrupole moment (field-independent basis, Debye-Ang):
   XX=              0.5982   YY=              0.5982   ZZ=             -1.1964
   XY=             -0.0000   XZ=              0.0000   YZ=             -0.0000
 Octapole moment (field-independent basis, Debye-Ang**2):
  XXX=              0.0000  YYY=             -0.0000  ZZZ=             -6.5688  XYY=              0.0000
  XXY=             -0.0000  XXZ=             -1.2923  XZZ=              0.0000  YZZ=              0.0000
  YYZ=             -1.2923  XYZ=             -0.0000
 Hexadecapole moment (field-independent basis, Debye-Ang**3):
 XXXX=             -2.2115 YYYY=             -2.2115 ZZZZ=            -16.8675 XXXY=             -0.0000
 XXXZ=              0.0000 YYYX=             -0.0000 YYYZ=             -0.0000 ZZZX=              0.0000
 ZZZY=              0.0000 XXYY=             -0.7372 XXZZ=             -2.6587 YYZZ=             -2.6587
 XXYZ=             -0.0000 YYXZ=              0.0000 ZZXY=             -0.0000
 N-N= 2.645886054600D+00 E-N=-8.093925156162D+00  KE= 2.366193136852D+00
                          Isotropic Fermi Contact Couplings
        Atom                 a.u.       MegaHertz       Gauss      10(-4) cm-1
     1  H(1)               0.16907     755.73299     269.66432     252.08539
     2  H(1)              -0.02719    -121.53733     -43.36754     -40.54049
     3  H(1)               0.16907     755.73299     269.66432     252.08539
 --------------------------------------------------------
       Center         ----  Spin Dipole Couplings  ----
                      3XX-RR        3YY-RR        3ZZ-RR
 --------------------------------------------------------
     1   Atom       -0.004559     -0.004559      0.009118
     2   Atom       -0.229332     -0.229332      0.458664
     3   Atom       -0.004559     -0.004559      0.009118
 --------------------------------------------------------
                        XY            XZ            YZ
 --------------------------------------------------------
     1   Atom        0.000000      0.000000      0.000000
     2   Atom        0.000000      0.000000      0.000000
     3   Atom        0.000000      0.000000      0.000000
 --------------------------------------------------------


 ---------------------------------------------------------------------------------
              Anisotropic Spin Dipole Couplings in Principal Axis System
 ---------------------------------------------------------------------------------

       Atom             a.u.   MegaHertz   Gauss  10(-4) cm-1        Axes

              Baa    -0.0046    -2.432    -0.868    -0.811  1.0000  0.0000  0.0000
     1 H(1)   Bbb    -0.0046    -2.432    -0.868    -0.811 -0.0000  1.0000  0.0000
              Bcc     0.0091     4.865     1.736     1.623  0.0000  0.0000  1.0000
 
              Baa    -0.2293  -122.361   -43.661   -40.815  1.0000  0.0000  0.0000
     2 H(1)   Bbb    -0.2293  -122.361   -43.661   -40.815 -0.0000  1.0000  0.0000
              Bcc     0.4587   244.721    87.323    81.630  0.0000  0.0000  1.0000
 
              Baa    -0.0046    -2.432    -0.868    -0.811  1.0000  0.0000  0.0000
     3 H(1)   Bbb    -0.0046    -2.432    -0.868    -0.811 -0.0000  1.0000  0.0000
              Bcc     0.0091     4.865     1.736     1.623  0.0000  0.0000  1.0000
 

 ---------------------------------------------------------------------------------

 Variable Step   Value    
 -------- ---- -----------
     1       1    1.133836
     2       0    0.944863
 ---------------------------------------------------------------------------------------------------
                            Z-MATRIX (ANGSTROMS AND DEGREES)
   CD    Cent   Atom    N1       Length/X        N2       Alpha/Y        N3        Beta/Z          J
 ---------------------------------------------------------------------------------------------------
      1      1  H 
      2      2  H        1   0.600000(     1)
      3      3  H        2   0.500000(     2)      1  180.000(     3)
 ---------------------------------------------------------------------------------------------------
                         Z-Matrix orientation:                         
 ---------------------------------------------------------------------
 Center     Atomic      Atomic             Coordinates (Angstroms)
 Number     Number       Type             X           Y           Z
 ---------------------------------------------------------------------
      1          1           0        0.000000    0.000000    0.000000
      2          1           0        0.000000    0.000000    0.600000
      3          1           0        0.000000    0.000000    1.100000
 ---------------------------------------------------------------------
                    Distance matrix (angstroms):
                    1          2          3
     1  H    0.000000
     2  H    0.600000   0.000000
     3  H    1.100000   0.500000   0.000000
 Symmetry turned off by external request.
 Stoichiometry    H3(2)
 Framework group  C*V[C*(HHH)]
 Deg. of freedom     2
 Full point group                 C*V     NOp   4
 Rotational constants (GHZ):           0.0000000         826.5743480         826.5743480
 Standard basis: 6-31G(d,p) (6D, 7F)
    15 basis functions,    21 primitive gaussians,    15 cartesian basis functions
     2 alpha electrons        1 beta electrons
       nuclear repulsion energy         2.4213866318 Hartrees.
 NAtoms=    3 NActive=    3 NUniq=    3 SFac= 1.00D+00 NAtFMM=   60 NAOKFM=F Big=F
 Integral buffers will be    131072 words long.
 Raffenetti 2 integral format.
 Two-electron integral symmetry is turned off.
 One-electron integrals computed using PRISM.
 NBasis=    15 RedAO= T EigKep=  7.20D-03  NBF=    15
 NBsUse=    15 1.00D-06 EigRej= -1.00D+00 NBFU=    15
 Initial guess from the checkpoint file:  "/scratch/Grace/g03/Gau-47582.chk"
 B after Tr=     0.000000    0.000000    0.125982
         Rot=    1.000000    0.000000    0.000000    0.000000 Ang=   0.00 deg.
 Initial guess <Sx>= 0.0000 <Sy>= 0.0000 <Sz>= 0.5000 <S**2>= 0.7517 S= 0.5009
 ExpMin= 1.61D-01 ExpMax= 1.87D+01 ExpMxC= 1.87D+01 IAcc=2 IRadAn=         4 AccDes= 0.00D+00
 Harris functional with IExCor=  402 and IRadAn=       4 diagonalized for initial guess.
 HarFok:  IExCor=  402 AccDes= 0.00D+00 IRadAn=         4 IDoV= 1 UseB2=F ITyADJ=14
 ICtDFT=  3500011 ScaDFX=  1.000000  1.000000  1.000000  1.000000
 FoFCou: FMM=F IPFlag=           0 FMFlag=      100000 FMFlg1=           0
         NFxFlg=           0 DoJE=T BraDBF=F KetDBF=T FulRan=T
         wScrn=  0.000000 ICntrl=       500 IOpCl=  0 I1Cent=   200000004 NGrid=           0
         NMat0=    1 NMatS0=      1 NMatT0=    0 NMatD0=    1 NMtDS0=    0 NMtDT0=    0
 Symmetry not used in FoFCou.
 Keep R1 and R2 ints in memory in canonical form, NReq=876181.
 Requested convergence on RMS density matrix=1.00D-08 within 128 cycles.
 Requested convergence on MAX density matrix=1.00D-06.
 Requested convergence on             energy=1.00D-06.
 No special actions if energy rises.
 Integral accuracy reduced to 1.0D-05 until final iterations.
 Initial convergence to 1.0D-05 achieved.  Increase integral accuracy.
 SCF Done:  E(UB3LYP) =  -1.46606795422     A.U. after   11 cycles
            NFock= 11  Conv=0.82D-09     -V/T= 1.6482
 <Sx>= 0.0000 <Sy>= 0.0000 <Sz>= 0.5000 <S**2>= 0.7517 S= 0.5008
 <L.S>= 0.000000000000E+00
 Annihilation of the first spin contaminant:
 S**2 before annihilation     0.7517,   after     0.7500
 Variable Step   Value    
 -------- ---- -----------
     1       2    1.322808
     2       0    0.944863
 ---------------------------------------------------------------------------------------------------
                            Z-MATRIX (ANGSTROMS AND DEGREES)
   CD    Cent   Atom    N1       Length/X        N2       Alpha/Y        N3        Beta/Z          J
 ---------------------------------------------------------------------------------------------------
      1      1  H 
      2      2  H        1   0.700000(     1)
      3      3  H        2   0.500000(     2)      1  180.000(     3)
 ---------------------------------------------------------------------------------------------------
                         Z-Matrix orientation:                         
 ---------------------------------------------------------------------
 Center     Atomic      Atomic             Coordinates (Angstroms)
 Number     Number       Type             X           Y           Z
 ---------------------------------------------------------------------
      1          1           0        0.000000    0.000000    0.000000
      2          1           0        0.000000    0.000000    0.700000
      3          1           0        0.000000    0.000000    1.200000
 ---------------------------------------------------------------------
                    Distance matrix (angstroms):
                    1          2          3
     1  H    0.000000
     2  H    0.700000   0.000000
     3  H    1.200000   0.500000   0.000000
 Symmetry turned off by external request.
 Stoichiometry    H3(2)
 Framework group  C*V[C*(HHH)]
 Deg. of freedom     2
 Full point group                 C*V     NOp   4
 Rotational constants (GHZ):           0.0000000         690.0758318         690.0758318
 Standard basis: 6-31G(d,p) (6D, 7F)
    15 basis functions,    21 primitive gaussians,    15 cartesian basis functions
     2 alpha electrons        1 beta electrons
       nuclear repulsion energy         2.2553028751 Hartrees.
 NAtoms=    3 NActive=    3 NUniq=    3 SFac= 1.00D+00 NAtFMM=   60 NAOKFM=F Big=F
 Integral buffers will be    131072 words long.
 Raffenetti 2 integral format.
 Two-electron integral symmetry is turned off.
 One-electron integrals computed using PRISM.
 NBasis=    15 RedAO= T EigKep=  9.07D-03  NBF=    15
 NBsUse=    15 1.00D-06 EigRej= -1.00D+00 NBFU=    15
 Initial guess from the checkpoint file:  "/scratch/Grace/g03/Gau-47582.chk"
 B after Tr=     0.000000    0.000000    0.125982
         Rot=    1.000000    0.000000    0.000000    0.000000 Ang=   0.00 deg.
 Initial guess <Sx>= 0.0000 <Sy>= 0.0000 <Sz>= 0.5000 <S**2>= 0.7521 S= 0.5011
 ExpMin= 1.61D-01 ExpMax= 1.87D+01 ExpMxC= 1.87D+01 IAcc=2 IRadAn=         4 AccDes= 0.00D+00
 Harris functional with IExCor=  402 and IRadAn=       4 diagonalized for initial guess.
 HarFok:  IExCor=  402 AccDes= 0.00D+00 IRadAn=         4 IDoV= 1 UseB2=F ITyADJ=14
 ICtDFT=  3500011 ScaDFX=  1.000000  1.000000  1.000000  1.000000
 FoFCou: FMM=F IPFlag=           0 FMFlag=      100000 FMFlg1=           0
         NFxFlg=           0 DoJE=T BraDBF=F KetDBF=T FulRan=T
         wScrn=  0.000000 ICntrl=       500 IOpCl=  0 I1Cent=   200000004 NGrid=           0
         NMat0=    1 NMatS0=      1 NMatT0=    0 NMatD0=    1 NMtDS0=    0 NMtDT0=    0
 Symmetry not used in FoFCou.
 Keep R1 and R2 ints in memory in canonical form, NReq=876181.
 Requested convergence on RMS density matrix=1.00D-08 within 128 cycles.
 Requested convergence on MAX density matrix=1.00D-06.
 Requested convergence on             energy=1.00D-06.
 No special actions if energy rises.
 Integral accuracy reduced to 1.0D-05 until final iterations.
 Initial convergence to 1.0D-05 achieved.  Increase integral accuracy.
 SCF Done:  E(UB3LYP) =  -1.51253996271     A.U. after   11 cycles
            NFock= 11  Conv=0.88D-09     -V/T= 1.6923
 <Sx>= 0.0000 <Sy>= 0.0000 <Sz>= 0.5000 <S**2>= 0.7519 S= 0.5010
 <L.S>= 0.000000000000E+00
 Annihilation of the first spin contaminant:
 S**2 before annihilation     0.7519,   after     0.7500
 Variable Step   Value    
 -------- ---- -----------
     1       3    1.511781
     2       0    0.944863
 ---------------------------------------------------------------------------------------------------
                            Z-MATRIX (ANGSTROMS AND DEGREES)
   CD    Cent   Atom    N1       Length/X        N2       Alpha/Y        N3        Beta/Z          J
 ---------------------------------------------------------------------------------------------------
      1      1  H 
      2      2  H        1   0.800000(     1)
      3      3  H        2   0.500000(     2)      1  180.000(     3)
 ---------------------------------------------------------------------------------------------------
                         Z-Matrix orientation:                         
 ---------------------------------------------------------------------
 Center     Atomic      Atomic             Coordinates (Angstroms)
 Number     Number       Type             X           Y           Z
 ---------------------------------------------------------------------
      1          1           0        0.000000    0.000000    0.000000
      2          1           0        0.000000    0.000000    0.800000
      3          1           0        0.000000    0.000000    1.300000
 ---------------------------------------------------------------------
                    Distance matrix (angstroms):
                    1          2          3
     1  H    0.000000
     2  H    0.800000   0.000000
     3  H    1.300000   0.500000   0.000000
 Symmetry turned off by external request.
 Stoichiometry    H3(2)
 Framework group  C*V[C*(HHH)]
 Deg. of freedom     2
 Full point group                 C*V     NOp   4
 Rotational constants (GHZ):           0.0000000         583.0873308         583.0873308
 Standard basis: 6-31G(d,p) (6D, 7F)
    15 basis functions,    21 primitive gaussians,    15 cartesian basis functions
     2 alpha electrons        1 beta electrons
       nuclear repulsion energy         2.1268853285 Hartrees.
 NAtoms=    3 NActive=    3 NUniq=    3 SFac= 1.00D+00 NAtFMM=   60 NAOKFM=F Big=F
 Integral buffers will be    131072 words long.
 Raffenetti 2 integral format.
 Two-electron integral symmetry is turned off.
 One-electron integrals computed using PRISM.
 NBasis=    15 RedAO= T EigKep=  1.10D-02  NBF=    15
 NBsUse=    15 1.00D-06 EigRej= -1.00D+00 NBFU=    15
 Initial guess from the checkpoint file:  "/scratch/Grace/g03/Gau-47582.chk"
 B after Tr=     0.000000    0.000000    0.125982
         Rot=    1.000000    0.000000    0.000000    0.000000 Ang=   0.00 deg.
 Initial guess <Sx>= 0.0000 <Sy>= 0.0000 <Sz>= 0.5000 <S**2>= 0.7524 S= 0.5012
 ExpMin= 1.61D-01 ExpMax= 1.87D+01 ExpMxC= 1.87D+01 IAcc=2 IRadAn=         4 AccDes= 0.00D+00
 Harris functional with IExCor=  402 and IRadAn=       4 diagonalized for initial guess.
 HarFok:  IExCor=  402 AccDes= 0.00D+00 IRadAn=         4 IDoV= 1 UseB2=F ITyADJ=14
 ICtDFT=  3500011 ScaDFX=  1.000000  1.000000  1.000000  1.000000
 FoFCou: FMM=F IPFlag=           0 FMFlag=      100000 FMFlg1=           0
         NFxFlg=           0 DoJE=T BraDBF=F KetDBF=T FulRan=T
         wScrn=  0.000000 ICntrl=       500 IOpCl=  0 I1Cent=   200000004 NGrid=           0
         NMat0=    1 NMatS0=      1 NMatT0=    0 NMatD0=    1 NMtDS0=    0 NMtDT0=    0
 Symmetry not used in FoFCou.
 Keep R1 and R2 ints in memory in canonical form, NReq=876181.
 Requested convergence on RMS density matrix=1.00D-08 within 128 cycles.
 Requested convergence on MAX density matrix=1.00D-06.
 Requested convergence on             energy=1.00D-06.
 No special actions if energy rises.
 Integral accuracy reduced to 1.0D-05 until final iterations.
 Initial convergence to 1.0D-05 achieved.  Increase integral accuracy.
 SCF Done:  E(UB3LYP) =  -1.54088224667     A.U. after    9 cycles
            NFock=  9  Conv=0.80D-08     -V/T= 1.7241
 <Sx>= 0.0000 <Sy>= 0.0000 <Sz>= 0.5000 <S**2>= 0.7520 S= 0.5010
 <L.S>= 0.000000000000E+00
 Annihilation of the first spin contaminant:
 S**2 before annihilation     0.7520,   after     0.7500
 Variable Step   Value    
 -------- ---- -----------
     1       4    1.700754
     2       0    0.944863
 ---------------------------------------------------------------------------------------------------
                            Z-MATRIX (ANGSTROMS AND DEGREES)
   CD    Cent   Atom    N1       Length/X        N2       Alpha/Y        N3        Beta/Z          J
 ---------------------------------------------------------------------------------------------------
      1      1  H 
      2      2  H        1   0.900000(     1)
      3      3  H        2   0.500000(     2)      1  180.000(     3)
 ---------------------------------------------------------------------------------------------------
                         Z-Matrix orientation:                         
 ---------------------------------------------------------------------
 Center     Atomic      Atomic             Coordinates (Angstroms)
 Number     Number       Type             X           Y           Z
 ---------------------------------------------------------------------
      1          1           0        0.000000    0.000000    0.000000
      2          1           0        0.000000    0.000000    0.900000
      3          1           0        0.000000    0.000000    1.400000
 ---------------------------------------------------------------------
                    Distance matrix (angstroms):
                    1          2          3
     1  H    0.000000
     2  H    0.900000   0.000000
     3  H    1.400000   0.500000   0.000000
 Symmetry turned off by external request.
 Stoichiometry    H3(2)
 Framework group  C*V[C*(HHH)]
 Deg. of freedom     2
 Full point group                 C*V     NOp   4
 Rotational constants (GHZ):           0.0000000         498.1342097         498.1342097
 Standard basis: 6-31G(d,p) (6D, 7F)
    15 basis functions,    21 primitive gaussians,    15 cartesian basis functions
     2 alpha electrons        1 beta electrons
       nuclear repulsion energy         2.0243128227 Hartrees.
 NAtoms=    3 NActive=    3 NUniq=    3 SFac= 1.00D+00 NAtFMM=   60 NAOKFM=F Big=F
 Integral buffers will be    131072 words long.
 Raffenetti 2 integral format.
 Two-electron integral symmetry is turned off.
 One-electron integrals computed using PRISM.
 NBasis=    15 RedAO= T EigKep=  1.29D-02  NBF=    15
 NBsUse=    15 1.00D-06 EigRej= -1.00D+00 NBFU=    15
 Initial guess from the checkpoint file:  "/scratch/Grace/g03/Gau-47582.chk"
 B after Tr=     0.000000    0.000000    0.125982
         Rot=    1.000000    0.000000    0.000000    0.000000 Ang=   0.00 deg.
 Initial guess <Sx>= 0.0000 <Sy>= 0.0000 <Sz>= 0.5000 <S**2>= 0.7525 S= 0.5012
 ExpMin= 1.61D-01 ExpMax= 1.87D+01 ExpMxC= 1.87D+01 IAcc=2 IRadAn=         4 AccDes= 0.00D+00
 Harris functional with IExCor=  402 and IRadAn=       4 diagonalized for initial guess.
 HarFok:  IExCor=  402 AccDes= 0.00D+00 IRadAn=         4 IDoV= 1 UseB2=F ITyADJ=14
 ICtDFT=  3500011 ScaDFX=  1.000000  1.000000  1.000000  1.000000
 FoFCou: FMM=F IPFlag=           0 FMFlag=      100000 FMFlg1=           0
         NFxFlg=           0 DoJE=T BraDBF=F KetDBF=T FulRan=T
         wScrn=  0.000000 ICntrl=       500 IOpCl=  0 I1Cent=   200000004 NGrid=           0
         NMat0=    1 NMatS0=      1 NMatT0=    0 NMatD0=    1 NMtDS0=    0 NMtDT0=    0
 Symmetry not used in FoFCou.
 Keep R1 and R2 ints in memory in canonical form, NReq=876181.
 Requested convergence on RMS density matrix=1.00D-08 within 128 cycles.
 Requested convergence on MAX density matrix=1.00D-06.
 Requested convergence on             energy=1.00D-06.
 No special actions if energy rises.
 Integral accuracy reduced to 1.0D-05 until final iterations.
 Initial convergence to 1.0D-05 achieved.  Increase integral accuracy.
 SCF Done:  E(UB3LYP) =  -1.55917991393     A.U. after    9 cycles
            NFock=  9  Conv=0.72D-08     -V/T= 1.7474
 <Sx>= 0.0000 <Sy>= 0.0000 <Sz>= 0.5000 <S**2>= 0.7520 S= 0.5010
 <L.S>= 0.000000000000E+00
 Annihilation of the first spin contaminant:
 S**2 before annihilation     0.7520,   after     0.7500
 Variable Step   Value    
 -------- ---- -----------
     1       5    1.889726
     2       0    0.944863
 ---------------------------------------------------------------------------------------------------
                            Z-MATRIX (ANGSTROMS AND DEGREES)
   CD    Cent   Atom    N1       Length/X        N2       Alpha/Y        N3        Beta/Z          J
 ---------------------------------------------------------------------------------------------------
      1      1  H 
      2      2  H        1   1.000000(     1)
      3      3  H        2   0.500000(     2)      1  180.000(     3)
 ---------------------------------------------------------------------------------------------------
                         Z-Matrix orientation:                         
 ---------------------------------------------------------------------
 Center     Atomic      Atomic             Coordinates (Angstroms)
 Number     Number       Type             X           Y           Z
 ---------------------------------------------------------------------
      1          1           0        0.000000    0.000000    0.000000
      2          1           0        0.000000    0.000000    1.000000
      3          1           0        0.000000    0.000000    1.500000
 ---------------------------------------------------------------------
                    Distance matrix (angstroms):
                    1          2          3
     1  H    0.000000
     2  H    1.000000   0.000000
     3  H    1.500000   0.500000   0.000000
 Symmetry turned off by external request.
 Stoichiometry    H3(2)
 Framework group  C*V[C*(HHH)]
 Deg. of freedom     2
 Full point group                 C*V     NOp   4
 Rotational constants (GHZ):           0.0000000         429.8186610         429.8186610
 Standard basis: 6-31G(d,p) (6D, 7F)
    15 basis functions,    21 primitive gaussians,    15 cartesian basis functions
     2 alpha electrons        1 beta electrons
       nuclear repulsion energy         1.9403164400 Hartrees.
 NAtoms=    3 NActive=    3 NUniq=    3 SFac= 1.00D+00 NAtFMM=   60 NAOKFM=F Big=F
 Integral buffers will be    131072 words long.
 Raffenetti 2 integral format.
 Two-electron integral symmetry is turned off.
 One-electron integrals computed using PRISM.
 NBasis=    15 RedAO= T EigKep=  1.48D-02  NBF=    15
 NBsUse=    15 1.00D-06 EigRej= -1.00D+00 NBFU=    15
 Initial guess from the checkpoint file:  "/scratch/Grace/g03/Gau-47582.chk"
 B after Tr=     0.000000    0.000000    0.125982
         Rot=    1.000000    0.000000    0.000000    0.000000 Ang=   0.00 deg.
 Initial guess <Sx>= 0.0000 <Sy>= 0.0000 <Sz>= 0.5000 <S**2>= 0.7524 S= 0.5012
 ExpMin= 1.61D-01 ExpMax= 1.87D+01 ExpMxC= 1.87D+01 IAcc=2 IRadAn=         4 AccDes= 0.00D+00
 Harris functional with IExCor=  402 and IRadAn=       4 diagonalized for initial guess.
 HarFok:  IExCor=  402 AccDes= 0.00D+00 IRadAn=         4 IDoV= 1 UseB2=F ITyADJ=14
 ICtDFT=  3500011 ScaDFX=  1.000000  1.000000  1.000000  1.000000
 FoFCou: FMM=F IPFlag=           0 FMFlag=      100000 FMFlg1=           0
         NFxFlg=           0 DoJE=T BraDBF=F KetDBF=T FulRan=T
         wScrn=  0.000000 ICntrl=       500 IOpCl=  0 I1Cent=   200000004 NGrid=           0
         NMat0=    1 NMatS0=      1 NMatT0=    0 NMatD0=    1 NMtDS0=    0 NMtDT0=    0
 Symmetry not used in FoFCou.
 Keep R1 and R2 ints in memory in canonical form, NReq=876181.
 Requested convergence on RMS density matrix=1.00D-08 within 128 cycles.
 Requested convergence on MAX density matrix=1.00D-06.
 Requested convergence on             energy=1.00D-06.
 No special actions if energy rises.
 Integral accuracy reduced to 1.0D-05 until final iterations.
 Initial convergence to 1.0D-05 achieved.  Increase integral accuracy.
 SCF Done:  E(UB3LYP) =  -1.57159936566     A.U. after    9 cycles
            NFock=  9  Conv=0.53D-08     -V/T= 1.7647
 <Sx>= 0.0000 <Sy>= 0.0000 <Sz>= 0.5000 <S**2>= 0.7519 S= 0.5009
 <L.S>= 0.000000000000E+00
 Annihilation of the first spin contaminant:
 S**2 before annihilation     0.7519,   after     0.7500
 Variable Step   Value    
 -------- ---- -----------
     1       6    2.078699
     2       0    0.944863
 ---------------------------------------------------------------------------------------------------
                            Z-MATRIX (ANGSTROMS AND DEGREES)
   CD    Cent   Atom    N1       Length/X        N2       Alpha/Y        N3        Beta/Z          J
 ---------------------------------------------------------------------------------------------------
      1      1  H 
      2      2  H        1   1.100000(     1)
      3      3  H        2   0.500000(     2)      1  180.000(     3)
 ---------------------------------------------------------------------------------------------------
                         Z-Matrix orientation:                         
 ---------------------------------------------------------------------
 Center     Atomic      Atomic             Coordinates (Angstroms)
 Number     Number       Type             X           Y           Z
 ---------------------------------------------------------------------
      1          1           0        0.000000    0.000000    0.000000
      2          1           0        0.000000    0.000000    1.100000
      3          1           0        0.000000    0.000000    1.600000
 ---------------------------------------------------------------------
                    Distance matrix (angstroms):
                    1          2          3
     1  H    0.000000
     2  H    1.100000   0.000000
     3  H    1.600000   0.500000   0.000000
 Symmetry turned off by external request.
 Stoichiometry    H3(2)
 Framework group  C*V[C*(HHH)]
 Deg. of freedom     2
 Full point group                 C*V     NOp   4
 Rotational constants (GHZ):           0.0000000         374.2202272         374.2202272
 Standard basis: 6-31G(d,p) (6D, 7F)
    15 basis functions,    21 primitive gaussians,    15 cartesian basis functions
     2 alpha electrons        1 beta electrons
       nuclear repulsion energy         1.8701603704 Hartrees.
 NAtoms=    3 NActive=    3 NUniq=    3 SFac= 1.00D+00 NAtFMM=   60 NAOKFM=F Big=F
 Integral buffers will be    131072 words long.
 Raffenetti 2 integral format.
 Two-electron integral symmetry is turned off.
 One-electron integrals computed using PRISM.
 NBasis=    15 RedAO= T EigKep=  1.64D-02  NBF=    15
 NBsUse=    15 1.00D-06 EigRej= -1.00D+00 NBFU=    15
 Initial guess from the checkpoint file:  "/scratch/Grace/g03/Gau-47582.chk"
 B after Tr=     0.000000    0.000000    0.125982
         Rot=    1.000000    0.000000    0.000000    0.000000 Ang=   0.00 deg.
 Initial guess <Sx>= 0.0000 <Sy>= 0.0000 <Sz>= 0.5000 <S**2>= 0.7521 S= 0.5011
 ExpMin= 1.61D-01 ExpMax= 1.87D+01 ExpMxC= 1.87D+01 IAcc=2 IRadAn=         4 AccDes= 0.00D+00
 Harris functional with IExCor=  402 and IRadAn=       4 diagonalized for initial guess.
 HarFok:  IExCor=  402 AccDes= 0.00D+00 IRadAn=         4 IDoV= 1 UseB2=F ITyADJ=14
 ICtDFT=  3500011 ScaDFX=  1.000000  1.000000  1.000000  1.000000
 FoFCou: FMM=F IPFlag=           0 FMFlag=      100000 FMFlg1=           0
         NFxFlg=           0 DoJE=T BraDBF=F KetDBF=T FulRan=T
         wScrn=  0.000000 ICntrl=       500 IOpCl=  0 I1Cent=   200000004 NGrid=           0
         NMat0=    1 NMatS0=      1 NMatT0=    0 NMatD0=    1 NMtDS0=    0 NMtDT0=    0
 Symmetry not used in FoFCou.
 Keep R1 and R2 ints in memory in canonical form, NReq=876181.
 Requested convergence on RMS density matrix=1.00D-08 within 128 cycles.
 Requested convergence on MAX density matrix=1.00D-06.
 Requested convergence on             energy=1.00D-06.
 No special actions if energy rises.
 Integral accuracy reduced to 1.0D-05 until final iterations.
 Initial convergence to 1.0D-05 achieved.  Increase integral accuracy.
 SCF Done:  E(UB3LYP) =  -1.58038861512     A.U. after    9 cycles
            NFock=  9  Conv=0.35D-08     -V/T= 1.7777
 <Sx>= 0.0000 <Sy>= 0.0000 <Sz>= 0.5000 <S**2>= 0.7516 S= 0.5008
 <L.S>= 0.000000000000E+00
 Annihilation of the first spin contaminant:
 S**2 before annihilation     0.7516,   after     0.7500
 Variable Step   Value    
 -------- ---- -----------
     1       7    2.267671
     2       0    0.944863
 ---------------------------------------------------------------------------------------------------
                            Z-MATRIX (ANGSTROMS AND DEGREES)
   CD    Cent   Atom    N1       Length/X        N2       Alpha/Y        N3        Beta/Z          J
 ---------------------------------------------------------------------------------------------------
      1      1  H 
      2      2  H        1   1.200000(     1)
      3      3  H        2   0.500000(     2)      1  180.000(     3)
 ---------------------------------------------------------------------------------------------------
                         Z-Matrix orientation:                         
 ---------------------------------------------------------------------
 Center     Atomic      Atomic             Coordinates (Angstroms)
 Number     Number       Type             X           Y           Z
 ---------------------------------------------------------------------
      1          1           0        0.000000    0.000000    0.000000
      2          1           0        0.000000    0.000000    1.200000
      3          1           0        0.000000    0.000000    1.700000
 ---------------------------------------------------------------------
                    Distance matrix (angstroms):
                    1          2          3
     1  H    0.000000
     2  H    1.200000   0.000000
     3  H    1.700000   0.500000   0.000000
 Symmetry turned off by external request.
 Stoichiometry    H3(2)
 Framework group  C*V[C*(HHH)]
 Deg. of freedom     2
 Full point group                 C*V     NOp   4
 Rotational constants (GHZ):           0.0000000         328.4640422         328.4640422
 Standard basis: 6-31G(d,p) (6D, 7F)
    15 basis functions,    21 primitive gaussians,    15 cartesian basis functions
     2 alpha electrons        1 beta electrons
       nuclear repulsion energy         1.8106161432 Hartrees.
 NAtoms=    3 NActive=    3 NUniq=    3 SFac= 1.00D+00 NAtFMM=   60 NAOKFM=F Big=F
 Integral buffers will be    131072 words long.
 Raffenetti 2 integral format.
 Two-electron integral symmetry is turned off.
 One-electron integrals computed using PRISM.
 NBasis=    15 RedAO= T EigKep=  1.77D-02  NBF=    15
 NBsUse=    15 1.00D-06 EigRej= -1.00D+00 NBFU=    15
 Initial guess from the checkpoint file:  "/scratch/Grace/g03/Gau-47582.chk"
 B after Tr=     0.000000    0.000000    0.125982
         Rot=    1.000000    0.000000    0.000000    0.000000 Ang=   0.00 deg.
 Initial guess <Sx>= 0.0000 <Sy>= 0.0000 <Sz>= 0.5000 <S**2>= 0.7518 S= 0.5009
 ExpMin= 1.61D-01 ExpMax= 1.87D+01 ExpMxC= 1.87D+01 IAcc=2 IRadAn=         4 AccDes= 0.00D+00
 Harris functional with IExCor=  402 and IRadAn=       4 diagonalized for initial guess.
 HarFok:  IExCor=  402 AccDes= 0.00D+00 IRadAn=         4 IDoV= 1 UseB2=F ITyADJ=14
 ICtDFT=  3500011 ScaDFX=  1.000000  1.000000  1.000000  1.000000
 FoFCou: FMM=F IPFlag=           0 FMFlag=      100000 FMFlg1=           0
         NFxFlg=           0 DoJE=T BraDBF=F KetDBF=T FulRan=T
         wScrn=  0.000000 ICntrl=       500 IOpCl=  0 I1Cent=   200000004 NGrid=           0
         NMat0=    1 NMatS0=      1 NMatT0=    0 NMatD0=    1 NMtDS0=    0 NMtDT0=    0
 Symmetry not used in FoFCou.
 Keep R1 and R2 ints in memory in canonical form, NReq=876181.
 Requested convergence on RMS density matrix=1.00D-08 within 128 cycles.
 Requested convergence on MAX density matrix=1.00D-06.
 Requested convergence on             energy=1.00D-06.
 No special actions if energy rises.
 Integral accuracy reduced to 1.0D-05 until final iterations.
 Initial convergence to 1.0D-05 achieved.  Increase integral accuracy.
 SCF Done:  E(UB3LYP) =  -1.58681440559     A.U. after    9 cycles
            NFock=  9  Conv=0.22D-08     -V/T= 1.7877
 <Sx>= 0.0000 <Sy>= 0.0000 <Sz>= 0.5000 <S**2>= 0.7514 S= 0.5007
 <L.S>= 0.000000000000E+00
 Annihilation of the first spin contaminant:
 S**2 before annihilation     0.7514,   after     0.7500
 Variable Step   Value    
 -------- ---- -----------
     1       8    2.456644
     2       0    0.944863
 ---------------------------------------------------------------------------------------------------
                            Z-MATRIX (ANGSTROMS AND DEGREES)
   CD    Cent   Atom    N1       Length/X        N2       Alpha/Y        N3        Beta/Z          J
 ---------------------------------------------------------------------------------------------------
      1      1  H 
      2      2  H        1   1.300000(     1)
      3      3  H        2   0.500000(     2)      1  180.000(     3)
 ---------------------------------------------------------------------------------------------------
                         Z-Matrix orientation:                         
 ---------------------------------------------------------------------
 Center     Atomic      Atomic             Coordinates (Angstroms)
 Number     Number       Type             X           Y           Z
 ---------------------------------------------------------------------
      1          1           0        0.000000    0.000000    0.000000
      2          1           0        0.000000    0.000000    1.300000
      3          1           0        0.000000    0.000000    1.800000
 ---------------------------------------------------------------------
                    Distance matrix (angstroms):
                    1          2          3
     1  H    0.000000
     2  H    1.300000   0.000000
     3  H    1.800000   0.500000   0.000000
 Symmetry turned off by external request.
 Stoichiometry    H3(2)
 Framework group  C*V[C*(HHH)]
 Deg. of freedom     2
 Full point group                 C*V     NOp   4
 Rotational constants (GHZ):           0.0000000         290.4180142         290.4180142
 Standard basis: 6-31G(d,p) (6D, 7F)
    15 basis functions,    21 primitive gaussians,    15 cartesian basis functions
     2 alpha electrons        1 beta electrons
       nuclear repulsion energy         1.7594011543 Hartrees.
 NAtoms=    3 NActive=    3 NUniq=    3 SFac= 1.00D+00 NAtFMM=   60 NAOKFM=F Big=F
 Integral buffers will be    131072 words long.
 Raffenetti 2 integral format.
 Two-electron integral symmetry is turned off.
 One-electron integrals computed using PRISM.
 NBasis=    15 RedAO= T EigKep=  1.85D-02  NBF=    15
 NBsUse=    15 1.00D-06 EigRej= -1.00D+00 NBFU=    15
 Initial guess from the checkpoint file:  "/scratch/Grace/g03/Gau-47582.chk"
 B after Tr=     0.000000    0.000000    0.125982
         Rot=    1.000000    0.000000    0.000000    0.000000 Ang=   0.00 deg.
 Initial guess <Sx>= 0.0000 <Sy>= 0.0000 <Sz>= 0.5000 <S**2>= 0.7515 S= 0.5007
 ExpMin= 1.61D-01 ExpMax= 1.87D+01 ExpMxC= 1.87D+01 IAcc=2 IRadAn=         4 AccDes= 0.00D+00
 Harris functional with IExCor=  402 and IRadAn=       4 diagonalized for initial guess.
 HarFok:  IExCor=  402 AccDes= 0.00D+00 IRadAn=         4 IDoV= 1 UseB2=F ITyADJ=14
 ICtDFT=  3500011 ScaDFX=  1.000000  1.000000  1.000000  1.000000
 FoFCou: FMM=F IPFlag=           0 FMFlag=      100000 FMFlg1=           0
         NFxFlg=           0 DoJE=T BraDBF=F KetDBF=T FulRan=T
         wScrn=  0.000000 ICntrl=       500 IOpCl=  0 I1Cent=   200000004 NGrid=           0
         NMat0=    1 NMatS0=      1 NMatT0=    0 NMatD0=    1 NMtDS0=    0 NMtDT0=    0
 Symmetry not used in FoFCou.
 Keep R1 and R2 ints in memory in canonical form, NReq=876181.
 Requested convergence on RMS density matrix=1.00D-08 within 128 cycles.
 Requested convergence on MAX density matrix=1.00D-06.
 Requested convergence on             energy=1.00D-06.
 No special actions if energy rises.
 Integral accuracy reduced to 1.0D-05 until final iterations.
 Initial convergence to 1.0D-05 achieved.  Increase integral accuracy.
 SCF Done:  E(UB3LYP) =  -1.59162370034     A.U. after    9 cycles
            NFock=  9  Conv=0.17D-08     -V/T= 1.7955
 <Sx>= 0.0000 <Sy>= 0.0000 <Sz>= 0.5000 <S**2>= 0.7511 S= 0.5005
 <L.S>= 0.000000000000E+00
 Annihilation of the first spin contaminant:
 S**2 before annihilation     0.7511,   after     0.7500
 Variable Step   Value    
 -------- ---- -----------
     1       9    2.645617
     2       0    0.944863
 ---------------------------------------------------------------------------------------------------
                            Z-MATRIX (ANGSTROMS AND DEGREES)
   CD    Cent   Atom    N1       Length/X        N2       Alpha/Y        N3        Beta/Z          J
 ---------------------------------------------------------------------------------------------------
      1      1  H 
      2      2  H        1   1.400000(     1)
      3      3  H        2   0.500000(     2)      1  180.000(     3)
 ---------------------------------------------------------------------------------------------------
                         Z-Matrix orientation:                         
 ---------------------------------------------------------------------
 Center     Atomic      Atomic             Coordinates (Angstroms)
 Number     Number       Type             X           Y           Z
 ---------------------------------------------------------------------
      1          1           0        0.000000    0.000000    0.000000
      2          1           0        0.000000    0.000000    1.400000
      3          1           0        0.000000    0.000000    1.900000
 ---------------------------------------------------------------------
                    Distance matrix (angstroms):
                    1          2          3
     1  H    0.000000
     2  H    1.400000   0.000000
     3  H    1.900000   0.500000   0.000000
 Symmetry turned off by external request.
 Stoichiometry    H3(2)
 Framework group  C*V[C*(HHH)]
 Deg. of freedom     2
 Full point group                 C*V     NOp   4
 Rotational constants (GHZ):           0.0000000         258.4820126         258.4820126
 Standard basis: 6-31G(d,p) (6D, 7F)
    15 basis functions,    21 primitive gaussians,    15 cartesian basis functions
     2 alpha electrons        1 beta electrons
       nuclear repulsion energy         1.7148524655 Hartrees.
 NAtoms=    3 NActive=    3 NUniq=    3 SFac= 1.00D+00 NAtFMM=   60 NAOKFM=F Big=F
 Integral buffers will be    131072 words long.
 Raffenetti 2 integral format.
 Two-electron integral symmetry is turned off.
 One-electron integrals computed using PRISM.
 NBasis=    15 RedAO= T EigKep=  1.90D-02  NBF=    15
 NBsUse=    15 1.00D-06 EigRej= -1.00D+00 NBFU=    15
 Initial guess from the checkpoint file:  "/scratch/Grace/g03/Gau-47582.chk"
 B after Tr=     0.000000    0.000000    0.125982
         Rot=    1.000000    0.000000    0.000000    0.000000 Ang=   0.00 deg.
 Initial guess <Sx>= 0.0000 <Sy>= 0.0000 <Sz>= 0.5000 <S**2>= 0.7512 S= 0.5006
 ExpMin= 1.61D-01 ExpMax= 1.87D+01 ExpMxC= 1.87D+01 IAcc=2 IRadAn=         4 AccDes= 0.00D+00
 Harris functional with IExCor=  402 and IRadAn=       4 diagonalized for initial guess.
 HarFok:  IExCor=  402 AccDes= 0.00D+00 IRadAn=         4 IDoV= 1 UseB2=F ITyADJ=14
 ICtDFT=  3500011 ScaDFX=  1.000000  1.000000  1.000000  1.000000
 FoFCou: FMM=F IPFlag=           0 FMFlag=      100000 FMFlg1=           0
         NFxFlg=           0 DoJE=T BraDBF=F KetDBF=T FulRan=T
         wScrn=  0.000000 ICntrl=       500 IOpCl=  0 I1Cent=   200000004 NGrid=           0
         NMat0=    1 NMatS0=      1 NMatT0=    0 NMatD0=    1 NMtDS0=    0 NMtDT0=    0
 Symmetry not used in FoFCou.
 Keep R1 and R2 ints in memory in canonical form, NReq=876181.
 Requested convergence on RMS density matrix=1.00D-08 within 128 cycles.
 Requested convergence on MAX density matrix=1.00D-06.
 Requested convergence on             energy=1.00D-06.
 No special actions if energy rises.
 Integral accuracy reduced to 1.0D-05 until final iterations.
 Initial convergence to 1.0D-05 achieved.  Increase integral accuracy.
 SCF Done:  E(UB3LYP) =  -1.59527628808     A.U. after    9 cycles
            NFock=  9  Conv=0.16D-08     -V/T= 1.8016
 <Sx>= 0.0000 <Sy>= 0.0000 <Sz>= 0.5000 <S**2>= 0.7508 S= 0.5004
 <L.S>= 0.000000000000E+00
 Annihilation of the first spin contaminant:
 S**2 before annihilation     0.7508,   after     0.7500
 Variable Step   Value    
 -------- ---- -----------
     1      10    2.834589
     2       0    0.944863
 ---------------------------------------------------------------------------------------------------
                            Z-MATRIX (ANGSTROMS AND DEGREES)
   CD    Cent   Atom    N1       Length/X        N2       Alpha/Y        N3        Beta/Z          J
 ---------------------------------------------------------------------------------------------------
      1      1  H 
      2      2  H        1   1.500000(     1)
      3      3  H        2   0.500000(     2)      1  180.000(     3)
 ---------------------------------------------------------------------------------------------------
                         Z-Matrix orientation:                         
 ---------------------------------------------------------------------
 Center     Atomic      Atomic             Coordinates (Angstroms)
 Number     Number       Type             X           Y           Z
 ---------------------------------------------------------------------
      1          1           0        0.000000    0.000000    0.000000
      2          1           0        0.000000    0.000000    1.500000
      3          1           0        0.000000    0.000000    2.000000
 ---------------------------------------------------------------------
                    Distance matrix (angstroms):
                    1          2          3
     1  H    0.000000
     2  H    1.500000   0.000000
     3  H    2.000000   0.500000   0.000000
 Symmetry turned off by external request.
 Stoichiometry    H3(2)
 Framework group  C*V[C*(HHH)]
 Deg. of freedom     2
 Full point group                 C*V     NOp   4
 Rotational constants (GHZ):           0.0000000         231.4408174         231.4408174
 Standard basis: 6-31G(d,p) (6D, 7F)
    15 basis functions,    21 primitive gaussians,    15 cartesian basis functions
     2 alpha electrons        1 beta electrons
       nuclear repulsion energy         1.6757278346 Hartrees.
 NAtoms=    3 NActive=    3 NUniq=    3 SFac= 1.00D+00 NAtFMM=   60 NAOKFM=F Big=F
 Integral buffers will be    131072 words long.
 Raffenetti 2 integral format.
 Two-electron integral symmetry is turned off.
 One-electron integrals computed using PRISM.
 NBasis=    15 RedAO= T EigKep=  1.93D-02  NBF=    15
 NBsUse=    15 1.00D-06 EigRej= -1.00D+00 NBFU=    15
 Initial guess from the checkpoint file:  "/scratch/Grace/g03/Gau-47582.chk"
 B after Tr=     0.000000    0.000000    0.125982
         Rot=    1.000000    0.000000    0.000000    0.000000 Ang=   0.00 deg.
 Initial guess <Sx>= 0.0000 <Sy>= 0.0000 <Sz>= 0.5000 <S**2>= 0.7509 S= 0.5004
 ExpMin= 1.61D-01 ExpMax= 1.87D+01 ExpMxC= 1.87D+01 IAcc=2 IRadAn=         4 AccDes= 0.00D+00
 Harris functional with IExCor=  402 and IRadAn=       4 diagonalized for initial guess.
 HarFok:  IExCor=  402 AccDes= 0.00D+00 IRadAn=         4 IDoV= 1 UseB2=F ITyADJ=14
 ICtDFT=  3500011 ScaDFX=  1.000000  1.000000  1.000000  1.000000
 FoFCou: FMM=F IPFlag=           0 FMFlag=      100000 FMFlg1=           0
         NFxFlg=           0 DoJE=T BraDBF=F KetDBF=T FulRan=T
         wScrn=  0.000000 ICntrl=       500 IOpCl=  0 I1Cent=   200000004 NGrid=           0
         NMat0=    1 NMatS0=      1 NMatT0=    0 NMatD0=    1 NMtDS0=    0 NMtDT0=    0
 Symmetry not used in FoFCou.
 Keep R1 and R2 ints in memory in canonical form, NReq=876181.
 Requested convergence on RMS density matrix=1.00D-08 within 128 cycles.
 Requested convergence on MAX density matrix=1.00D-06.
 Requested convergence on             energy=1.00D-06.
 No special actions if energy rises.
 Integral accuracy reduced to 1.0D-05 until final iterations.
 Initial convergence to 1.0D-05 achieved.  Increase integral accuracy.
 SCF Done:  E(UB3LYP) =  -1.59806746427     A.U. after    9 cycles
            NFock=  9  Conv=0.16D-08     -V/T= 1.8066
 <Sx>= 0.0000 <Sy>= 0.0000 <Sz>= 0.5000 <S**2>= 0.7506 S= 0.5003
 <L.S>= 0.000000000000E+00
 Annihilation of the first spin contaminant:
 S**2 before annihilation     0.7506,   after     0.7500
 Variable Step   Value    
 -------- ---- -----------
     1      11    3.023562
     2       0    0.944863
 ---------------------------------------------------------------------------------------------------
                            Z-MATRIX (ANGSTROMS AND DEGREES)
   CD    Cent   Atom    N1       Length/X        N2       Alpha/Y        N3        Beta/Z          J
 ---------------------------------------------------------------------------------------------------
      1      1  H 
      2      2  H        1   1.600000(     1)
      3      3  H        2   0.500000(     2)      1  180.000(     3)
 ---------------------------------------------------------------------------------------------------
                         Z-Matrix orientation:                         
 ---------------------------------------------------------------------
 Center     Atomic      Atomic             Coordinates (Angstroms)
 Number     Number       Type             X           Y           Z
 ---------------------------------------------------------------------
      1          1           0        0.000000    0.000000    0.000000
      2          1           0        0.000000    0.000000    1.600000
      3          1           0        0.000000    0.000000    2.100000
 ---------------------------------------------------------------------
                    Distance matrix (angstroms):
                    1          2          3
     1  H    0.000000
     2  H    1.600000   0.000000
     3  H    2.100000   0.500000   0.000000
 Symmetry turned off by external request.
 Stoichiometry    H3(2)
 Framework group  C*V[C*(HHH)]
 Deg. of freedom     2
 Full point group                 C*V     NOp   4
 Rotational constants (GHZ):           0.0000000         208.3608467         208.3608467
 Standard basis: 6-31G(d,p) (6D, 7F)
    15 basis functions,    21 primitive gaussians,    15 cartesian basis functions
     2 alpha electrons        1 beta electrons
       nuclear repulsion energy         1.6410793267 Hartrees.
 NAtoms=    3 NActive=    3 NUniq=    3 SFac= 1.00D+00 NAtFMM=   60 NAOKFM=F Big=F
 Integral buffers will be    131072 words long.
 Raffenetti 2 integral format.
 Two-electron integral symmetry is turned off.
 One-electron integrals computed using PRISM.
 NBasis=    15 RedAO= T EigKep=  1.95D-02  NBF=    15
 NBsUse=    15 1.00D-06 EigRej= -1.00D+00 NBFU=    15
 Initial guess from the checkpoint file:  "/scratch/Grace/g03/Gau-47582.chk"
 B after Tr=     0.000000    0.000000    0.125982
         Rot=    1.000000    0.000000    0.000000    0.000000 Ang=   0.00 deg.
 Initial guess <Sx>= 0.0000 <Sy>= 0.0000 <Sz>= 0.5000 <S**2>= 0.7507 S= 0.5003
 ExpMin= 1.61D-01 ExpMax= 1.87D+01 ExpMxC= 1.87D+01 IAcc=2 IRadAn=         4 AccDes= 0.00D+00
 Harris functional with IExCor=  402 and IRadAn=       4 diagonalized for initial guess.
 HarFok:  IExCor=  402 AccDes= 0.00D+00 IRadAn=         4 IDoV= 1 UseB2=F ITyADJ=14
 ICtDFT=  3500011 ScaDFX=  1.000000  1.000000  1.000000  1.000000
 FoFCou: FMM=F IPFlag=           0 FMFlag=      100000 FMFlg1=           0
         NFxFlg=           0 DoJE=T BraDBF=F KetDBF=T FulRan=T
         wScrn=  0.000000 ICntrl=       500 IOpCl=  0 I1Cent=   200000004 NGrid=           0
         NMat0=    1 NMatS0=      1 NMatT0=    0 NMatD0=    1 NMtDS0=    0 NMtDT0=    0
 Symmetry not used in FoFCou.
 Keep R1 and R2 ints in memory in canonical form, NReq=876181.
 Requested convergence on RMS density matrix=1.00D-08 within 128 cycles.
 Requested convergence on MAX density matrix=1.00D-06.
 Requested convergence on             energy=1.00D-06.
 No special actions if energy rises.
 Integral accuracy reduced to 1.0D-05 until final iterations.
 Initial convergence to 1.0D-05 achieved.  Increase integral accuracy.
 SCF Done:  E(UB3LYP) =  -1.60019774370     A.U. after    8 cycles
            NFock=  8  Conv=0.78D-08     -V/T= 1.8105
 <Sx>= 0.0000 <Sy>= 0.0000 <Sz>= 0.5000 <S**2>= 0.7505 S= 0.5002
 <L.S>= 0.000000000000E+00
 Annihilation of the first spin contaminant:
 S**2 before annihilation     0.7505,   after     0.7500
 Variable Step   Value    
 -------- ---- -----------
     1      12    3.212534
     2       0    0.944863
 ---------------------------------------------------------------------------------------------------
                            Z-MATRIX (ANGSTROMS AND DEGREES)
   CD    Cent   Atom    N1       Length/X        N2       Alpha/Y        N3        Beta/Z          J
 ---------------------------------------------------------------------------------------------------
      1      1  H 
      2      2  H        1   1.700000(     1)
      3      3  H        2   0.500000(     2)      1  180.000(     3)
 ---------------------------------------------------------------------------------------------------
                         Z-Matrix orientation:                         
 ---------------------------------------------------------------------
 Center     Atomic      Atomic             Coordinates (Angstroms)
 Number     Number       Type             X           Y           Z
 ---------------------------------------------------------------------
      1          1           0        0.000000    0.000000    0.000000
      2          1           0        0.000000    0.000000    1.700000
      3          1           0        0.000000    0.000000    2.200000
 ---------------------------------------------------------------------
                    Distance matrix (angstroms):
                    1          2          3
     1  H    0.000000
     2  H    1.700000   0.000000
     3  H    2.200000   0.500000   0.000000
 Symmetry turned off by external request.
 Stoichiometry    H3(2)
 Framework group  C*V[C*(HHH)]
 Deg. of freedom     2
 Full point group                 C*V     NOp   4
 Rotational constants (GHZ):           0.0000000         188.5169566         188.5169566
 Standard basis: 6-31G(d,p) (6D, 7F)
    15 basis functions,    21 primitive gaussians,    15 cartesian basis functions
     2 alpha electrons        1 beta electrons
       nuclear repulsion energy         1.6101702300 Hartrees.
 NAtoms=    3 NActive=    3 NUniq=    3 SFac= 1.00D+00 NAtFMM=   60 NAOKFM=F Big=F
 Integral buffers will be    131072 words long.
 Raffenetti 2 integral format.
 Two-electron integral symmetry is turned off.
 One-electron integrals computed using PRISM.
 NBasis=    15 RedAO= T EigKep=  1.96D-02  NBF=    15
 NBsUse=    15 1.00D-06 EigRej= -1.00D+00 NBFU=    15
 Initial guess from the checkpoint file:  "/scratch/Grace/g03/Gau-47582.chk"
 B after Tr=     0.000000    0.000000    0.125982
         Rot=    1.000000    0.000000    0.000000    0.000000 Ang=   0.00 deg.
 Initial guess <Sx>= 0.0000 <Sy>= 0.0000 <Sz>= 0.5000 <S**2>= 0.7505 S= 0.5002
 ExpMin= 1.61D-01 ExpMax= 1.87D+01 ExpMxC= 1.87D+01 IAcc=2 IRadAn=         4 AccDes= 0.00D+00
 Harris functional with IExCor=  402 and IRadAn=       4 diagonalized for initial guess.
 HarFok:  IExCor=  402 AccDes= 0.00D+00 IRadAn=         4 IDoV= 1 UseB2=F ITyADJ=14
 ICtDFT=  3500011 ScaDFX=  1.000000  1.000000  1.000000  1.000000
 FoFCou: FMM=F IPFlag=           0 FMFlag=      100000 FMFlg1=           0
         NFxFlg=           0 DoJE=T BraDBF=F KetDBF=T FulRan=T
         wScrn=  0.000000 ICntrl=       500 IOpCl=  0 I1Cent=   200000004 NGrid=           0
         NMat0=    1 NMatS0=      1 NMatT0=    0 NMatD0=    1 NMtDS0=    0 NMtDT0=    0
 Symmetry not used in FoFCou.
 Keep R1 and R2 ints in memory in canonical form, NReq=876181.
 Requested convergence on RMS density matrix=1.00D-08 within 128 cycles.
 Requested convergence on MAX density matrix=1.00D-06.
 Requested convergence on             energy=1.00D-06.
 No special actions if energy rises.
 Integral accuracy reduced to 1.0D-05 until final iterations.
 Initial convergence to 1.0D-05 achieved.  Increase integral accuracy.
 SCF Done:  E(UB3LYP) =  -1.60181316034     A.U. after    8 cycles
            NFock=  8  Conv=0.52D-08     -V/T= 1.8137
 <Sx>= 0.0000 <Sy>= 0.0000 <Sz>= 0.5000 <S**2>= 0.7503 S= 0.5002
 <L.S>= 0.000000000000E+00
 Annihilation of the first spin contaminant:
 S**2 before annihilation     0.7503,   after     0.7500
 Variable Step   Value    
 -------- ---- -----------
     1      13    3.401507
     2       0    0.944863
 ---------------------------------------------------------------------------------------------------
                            Z-MATRIX (ANGSTROMS AND DEGREES)
   CD    Cent   Atom    N1       Length/X        N2       Alpha/Y        N3        Beta/Z          J
 ---------------------------------------------------------------------------------------------------
      1      1  H 
      2      2  H        1   1.800000(     1)
      3      3  H        2   0.500000(     2)      1  180.000(     3)
 ---------------------------------------------------------------------------------------------------
                         Z-Matrix orientation:                         
 ---------------------------------------------------------------------
 Center     Atomic      Atomic             Coordinates (Angstroms)
 Number     Number       Type             X           Y           Z
 ---------------------------------------------------------------------
      1          1           0        0.000000    0.000000    0.000000
      2          1           0        0.000000    0.000000    1.800000
      3          1           0        0.000000    0.000000    2.300000
 ---------------------------------------------------------------------
                    Distance matrix (angstroms):
                    1          2          3
     1  H    0.000000
     2  H    1.800000   0.000000
     3  H    2.300000   0.500000   0.000000
 Symmetry turned off by external request.
 Stoichiometry    H3(2)
 Framework group  C*V[C*(HHH)]
 Deg. of freedom     2
 Full point group                 C*V     NOp   4
 Rotational constants (GHZ):           0.0000000         171.3400129         171.3400129
 Standard basis: 6-31G(d,p) (6D, 7F)
    15 basis functions,    21 primitive gaussians,    15 cartesian basis functions
     2 alpha electrons        1 beta electrons
       nuclear repulsion energy         1.5824188095 Hartrees.
 NAtoms=    3 NActive=    3 NUniq=    3 SFac= 1.00D+00 NAtFMM=   60 NAOKFM=F Big=F
 Integral buffers will be    131072 words long.
 Raffenetti 2 integral format.
 Two-electron integral symmetry is turned off.
 One-electron integrals computed using PRISM.
 NBasis=    15 RedAO= T EigKep=  1.96D-02  NBF=    15
 NBsUse=    15 1.00D-06 EigRej= -1.00D+00 NBFU=    15
 Initial guess from the checkpoint file:  "/scratch/Grace/g03/Gau-47582.chk"
 B after Tr=     0.000000    0.000000    0.125982
         Rot=    1.000000    0.000000    0.000000    0.000000 Ang=   0.00 deg.
 Initial guess <Sx>= 0.0000 <Sy>= 0.0000 <Sz>= 0.5000 <S**2>= 0.7503 S= 0.5002
 ExpMin= 1.61D-01 ExpMax= 1.87D+01 ExpMxC= 1.87D+01 IAcc=2 IRadAn=         4 AccDes= 0.00D+00
 Harris functional with IExCor=  402 and IRadAn=       4 diagonalized for initial guess.
 HarFok:  IExCor=  402 AccDes= 0.00D+00 IRadAn=         4 IDoV= 1 UseB2=F ITyADJ=14
 ICtDFT=  3500011 ScaDFX=  1.000000  1.000000  1.000000  1.000000
 FoFCou: FMM=F IPFlag=           0 FMFlag=      100000 FMFlg1=           0
         NFxFlg=           0 DoJE=T BraDBF=F KetDBF=T FulRan=T
         wScrn=  0.000000 ICntrl=       500 IOpCl=  0 I1Cent=   200000004 NGrid=           0
         NMat0=    1 NMatS0=      1 NMatT0=    0 NMatD0=    1 NMtDS0=    0 NMtDT0=    0
 Symmetry not used in FoFCou.
 Keep R1 and R2 ints in memory in canonical form, NReq=876181.
 Requested convergence on RMS density matrix=1.00D-08 within 128 cycles.
 Requested convergence on MAX density matrix=1.00D-06.
 Requested convergence on             energy=1.00D-06.
 No special actions if energy rises.
 Integral accuracy reduced to 1.0D-05 until final iterations.
 Initial convergence to 1.0D-05 achieved.  Increase integral accuracy.
 SCF Done:  E(UB3LYP) =  -1.60302640574     A.U. after    8 cycles
            NFock=  8  Conv=0.89D-08     -V/T= 1.8163
 <Sx>= 0.0000 <Sy>= 0.0000 <Sz>= 0.5000 <S**2>= 0.7502 S= 0.5001
 <L.S>= 0.000000000000E+00
 Annihilation of the first spin contaminant:
 S**2 before annihilation     0.7502,   after     0.7500
 Variable Step   Value    
 -------- ---- -----------
     1      14    3.590480
     2       0    0.944863
 ---------------------------------------------------------------------------------------------------
                            Z-MATRIX (ANGSTROMS AND DEGREES)
   CD    Cent   Atom    N1       Length/X        N2       Alpha/Y        N3        Beta/Z          J
 ---------------------------------------------------------------------------------------------------
      1      1  H 
      2      2  H        1   1.900000(     1)
      3      3  H        2   0.500000(     2)      1  180.000(     3)
 ---------------------------------------------------------------------------------------------------
                         Z-Matrix orientation:                         
 ---------------------------------------------------------------------
 Center     Atomic      Atomic             Coordinates (Angstroms)
 Number     Number       Type             X           Y           Z
 ---------------------------------------------------------------------
      1          1           0        0.000000    0.000000    0.000000
      2          1           0        0.000000    0.000000    1.900000
      3          1           0        0.000000    0.000000    2.400000
 ---------------------------------------------------------------------
                    Distance matrix (angstroms):
                    1          2          3
     1  H    0.000000
     2  H    1.900000   0.000000
     3  H    2.400000   0.500000   0.000000
 Symmetry turned off by external request.
 Stoichiometry    H3(2)
 Framework group  C*V[C*(HHH)]
 Deg. of freedom     2
 Full point group                 C*V     NOp   4
 Rotational constants (GHZ):           0.0000000         156.3789307         156.3789307
 Standard basis: 6-31G(d,p) (6D, 7F)
    15 basis functions,    21 primitive gaussians,    15 cartesian basis functions
     2 alpha electrons        1 beta electrons
       nuclear repulsion energy         1.5573592479 Hartrees.
 NAtoms=    3 NActive=    3 NUniq=    3 SFac= 1.00D+00 NAtFMM=   60 NAOKFM=F Big=F
 Integral buffers will be    131072 words long.
 Raffenetti 2 integral format.
 Two-electron integral symmetry is turned off.
 One-electron integrals computed using PRISM.
 NBasis=    15 RedAO= T EigKep=  1.97D-02  NBF=    15
 NBsUse=    15 1.00D-06 EigRej= -1.00D+00 NBFU=    15
 Initial guess from the checkpoint file:  "/scratch/Grace/g03/Gau-47582.chk"
 B after Tr=     0.000000    0.000000    0.125982
         Rot=    1.000000    0.000000    0.000000    0.000000 Ang=   0.00 deg.
 Initial guess <Sx>= 0.0000 <Sy>= 0.0000 <Sz>= 0.5000 <S**2>= 0.7503 S= 0.5001
 ExpMin= 1.61D-01 ExpMax= 1.87D+01 ExpMxC= 1.87D+01 IAcc=2 IRadAn=         4 AccDes= 0.00D+00
 Harris functional with IExCor=  402 and IRadAn=       4 diagonalized for initial guess.
 HarFok:  IExCor=  402 AccDes= 0.00D+00 IRadAn=         4 IDoV= 1 UseB2=F ITyADJ=14
 ICtDFT=  3500011 ScaDFX=  1.000000  1.000000  1.000000  1.000000
 FoFCou: FMM=F IPFlag=           0 FMFlag=      100000 FMFlg1=           0
         NFxFlg=           0 DoJE=T BraDBF=F KetDBF=T FulRan=T
         wScrn=  0.000000 ICntrl=       500 IOpCl=  0 I1Cent=   200000004 NGrid=           0
         NMat0=    1 NMatS0=      1 NMatT0=    0 NMatD0=    1 NMtDS0=    0 NMtDT0=    0
 Symmetry not used in FoFCou.
 Keep R1 and R2 ints in memory in canonical form, NReq=876181.
 Requested convergence on RMS density matrix=1.00D-08 within 128 cycles.
 Requested convergence on MAX density matrix=1.00D-06.
 Requested convergence on             energy=1.00D-06.
 No special actions if energy rises.
 Integral accuracy reduced to 1.0D-05 until final iterations.
 Initial convergence to 1.0D-05 achieved.  Increase integral accuracy.
 SCF Done:  E(UB3LYP) =  -1.60392688374     A.U. after    8 cycles
            NFock=  8  Conv=0.67D-08     -V/T= 1.8183
 <Sx>= 0.0000 <Sy>= 0.0000 <Sz>= 0.5000 <S**2>= 0.7502 S= 0.5001
 <L.S>= 0.000000000000E+00
 Annihilation of the first spin contaminant:
 S**2 before annihilation     0.7502,   after     0.7500
 Variable Step   Value    
 -------- ---- -----------
     1      15    3.779452
     2       0    0.944863
 ---------------------------------------------------------------------------------------------------
                            Z-MATRIX (ANGSTROMS AND DEGREES)
   CD    Cent   Atom    N1       Length/X        N2       Alpha/Y        N3        Beta/Z          J
 ---------------------------------------------------------------------------------------------------
      1      1  H 
      2      2  H        1   2.000000(     1)
      3      3  H        2   0.500000(     2)      1  180.000(     3)
 ---------------------------------------------------------------------------------------------------
                         Z-Matrix orientation:                         
 ---------------------------------------------------------------------
 Center     Atomic      Atomic             Coordinates (Angstroms)
 Number     Number       Type             X           Y           Z
 ---------------------------------------------------------------------
      1          1           0        0.000000    0.000000    0.000000
      2          1           0        0.000000    0.000000    2.000000
      3          1           0        0.000000    0.000000    2.500000
 ---------------------------------------------------------------------
                    Distance matrix (angstroms):
                    1          2          3
     1  H    0.000000
     2  H    2.000000   0.000000
     3  H    2.500000   0.500000   0.000000
 Symmetry turned off by external request.
 Stoichiometry    H3(2)
 Framework group  C*V[C*(HHH)]
 Deg. of freedom     2
 Full point group                 C*V     NOp   4
 Rotational constants (GHZ):           0.0000000         143.2728870         143.2728870
 Standard basis: 6-31G(d,p) (6D, 7F)
    15 basis functions,    21 primitive gaussians,    15 cartesian basis functions
     2 alpha electrons        1 beta electrons
       nuclear repulsion energy         1.5346139117 Hartrees.
 NAtoms=    3 NActive=    3 NUniq=    3 SFac= 1.00D+00 NAtFMM=   60 NAOKFM=F Big=F
 Integral buffers will be    131072 words long.
 Raffenetti 2 integral format.
 Two-electron integral symmetry is turned off.
 One-electron integrals computed using PRISM.
 NBasis=    15 RedAO= T EigKep=  1.97D-02  NBF=    15
 NBsUse=    15 1.00D-06 EigRej= -1.00D+00 NBFU=    15
 Initial guess from the checkpoint file:  "/scratch/Grace/g03/Gau-47582.chk"
 B after Tr=     0.000000    0.000000    0.125982
         Rot=    1.000000    0.000000    0.000000    0.000000 Ang=   0.00 deg.
 Initial guess <Sx>= 0.0000 <Sy>= 0.0000 <Sz>= 0.5000 <S**2>= 0.7502 S= 0.5001
 ExpMin= 1.61D-01 ExpMax= 1.87D+01 ExpMxC= 1.87D+01 IAcc=2 IRadAn=         4 AccDes= 0.00D+00
 Harris functional with IExCor=  402 and IRadAn=       4 diagonalized for initial guess.
 HarFok:  IExCor=  402 AccDes= 0.00D+00 IRadAn=         4 IDoV= 1 UseB2=F ITyADJ=14
 ICtDFT=  3500011 ScaDFX=  1.000000  1.000000  1.000000  1.000000
 FoFCou: FMM=F IPFlag=           0 FMFlag=      100000 FMFlg1=           0
         NFxFlg=           0 DoJE=T BraDBF=F KetDBF=T FulRan=T
         wScrn=  0.000000 ICntrl=       500 IOpCl=  0 I1Cent=   200000004 NGrid=           0
         NMat0=    1 NMatS0=      1 NMatT0=    0 NMatD0=    1 NMtDS0=    0 NMtDT0=    0
 Symmetry not used in FoFCou.
 Keep R1 and R2 ints in memory in canonical form, NReq=876181.
 Requested convergence on RMS density matrix=1.00D-08 within 128 cycles.
 Requested convergence on MAX density matrix=1.00D-06.
 Requested convergence on             energy=1.00D-06.
 No special actions if energy rises.
 Integral accuracy reduced to 1.0D-05 until final iterations.
 Initial convergence to 1.0D-05 achieved.  Increase integral accuracy.
 SCF Done:  E(UB3LYP) =  -1.60458598588     A.U. after    8 cycles
            NFock=  8  Conv=0.44D-08     -V/T= 1.8199
 <Sx>= 0.0000 <Sy>= 0.0000 <Sz>= 0.5000 <S**2>= 0.7501 S= 0.5001
 <L.S>= 0.000000000000E+00
 Annihilation of the first spin contaminant:
 S**2 before annihilation     0.7501,   after     0.7500
 Variable Step   Value    
 -------- ---- -----------
     1      16    3.968425
     2       0    0.944863
 ---------------------------------------------------------------------------------------------------
                            Z-MATRIX (ANGSTROMS AND DEGREES)
   CD    Cent   Atom    N1       Length/X        N2       Alpha/Y        N3        Beta/Z          J
 ---------------------------------------------------------------------------------------------------
      1      1  H 
      2      2  H        1   2.100000(     1)
      3      3  H        2   0.500000(     2)      1  180.000(     3)
 ---------------------------------------------------------------------------------------------------
                         Z-Matrix orientation:                         
 ---------------------------------------------------------------------
 Center     Atomic      Atomic             Coordinates (Angstroms)
 Number     Number       Type             X           Y           Z
 ---------------------------------------------------------------------
      1          1           0        0.000000    0.000000    0.000000
      2          1           0        0.000000    0.000000    2.100000
      3          1           0        0.000000    0.000000    2.600000
 ---------------------------------------------------------------------
                    Distance matrix (angstroms):
                    1          2          3
     1  H    0.000000
     2  H    2.100000   0.000000
     3  H    2.600000   0.500000   0.000000
 Symmetry turned off by external request.
 Stoichiometry    H3(2)
 Framework group  C*V[C*(HHH)]
 Deg. of freedom     2
 Full point group                 C*V     NOp   4
 Rotational constants (GHZ):           0.0000000         131.7307630         131.7307630
 Standard basis: 6-31G(d,p) (6D, 7F)
    15 basis functions,    21 primitive gaussians,    15 cartesian basis functions
     2 alpha electrons        1 beta electrons
       nuclear repulsion energy         1.5138732664 Hartrees.
 NAtoms=    3 NActive=    3 NUniq=    3 SFac= 1.00D+00 NAtFMM=   60 NAOKFM=F Big=F
 Integral buffers will be    131072 words long.
 Raffenetti 2 integral format.
 Two-electron integral symmetry is turned off.
 One-electron integrals computed using PRISM.
 NBasis=    15 RedAO= T EigKep=  1.97D-02  NBF=    15
 NBsUse=    15 1.00D-06 EigRej= -1.00D+00 NBFU=    15
 Initial guess from the checkpoint file:  "/scratch/Grace/g03/Gau-47582.chk"
 B after Tr=     0.000000    0.000000    0.125982
         Rot=    1.000000    0.000000    0.000000    0.000000 Ang=   0.00 deg.
 Initial guess <Sx>= 0.0000 <Sy>= 0.0000 <Sz>= 0.5000 <S**2>= 0.7501 S= 0.5001
 ExpMin= 1.61D-01 ExpMax= 1.87D+01 ExpMxC= 1.87D+01 IAcc=2 IRadAn=         4 AccDes= 0.00D+00
 Harris functional with IExCor=  402 and IRadAn=       4 diagonalized for initial guess.
 HarFok:  IExCor=  402 AccDes= 0.00D+00 IRadAn=         4 IDoV= 1 UseB2=F ITyADJ=14
 ICtDFT=  3500011 ScaDFX=  1.000000  1.000000  1.000000  1.000000
 FoFCou: FMM=F IPFlag=           0 FMFlag=      100000 FMFlg1=           0
         NFxFlg=           0 DoJE=T BraDBF=F KetDBF=T FulRan=T
         wScrn=  0.000000 ICntrl=       500 IOpCl=  0 I1Cent=   200000004 NGrid=           0
         NMat0=    1 NMatS0=      1 NMatT0=    0 NMatD0=    1 NMtDS0=    0 NMtDT0=    0
 Symmetry not used in FoFCou.
 Keep R1 and R2 ints in memory in canonical form, NReq=876181.
 Requested convergence on RMS density matrix=1.00D-08 within 128 cycles.
 Requested convergence on MAX density matrix=1.00D-06.
 Requested convergence on             energy=1.00D-06.
 No special actions if energy rises.
 Integral accuracy reduced to 1.0D-05 until final iterations.
 Initial convergence to 1.0D-05 achieved.  Increase integral accuracy.
 SCF Done:  E(UB3LYP) =  -1.60506079626     A.U. after    8 cycles
            NFock=  8  Conv=0.40D-08     -V/T= 1.8212
 <Sx>= 0.0000 <Sy>= 0.0000 <Sz>= 0.5000 <S**2>= 0.7501 S= 0.5000
 <L.S>= 0.000000000000E+00
 Annihilation of the first spin contaminant:
 S**2 before annihilation     0.7501,   after     0.7500
 Variable Step   Value    
 -------- ---- -----------
     1      17    4.157397
     2       0    0.944863
 ---------------------------------------------------------------------------------------------------
                            Z-MATRIX (ANGSTROMS AND DEGREES)
   CD    Cent   Atom    N1       Length/X        N2       Alpha/Y        N3        Beta/Z          J
 ---------------------------------------------------------------------------------------------------
      1      1  H 
      2      2  H        1   2.200000(     1)
      3      3  H        2   0.500000(     2)      1  180.000(     3)
 ---------------------------------------------------------------------------------------------------
                         Z-Matrix orientation:                         
[...]
 .5391042,-1.5305266,-1.5239337,-1.5189179,-1.5151231,-1.5122563,-1.510
 0868,-1.5084388,-1.5071805,-1.5062146,-1.5054691,-1.5048908,-1.5044404
 ,-1.5040883,-1.6060293,-1.659681,-1.6775991,-1.6770182,-1.6667366,-1.6
 51512,-1.6339978,-1.6157097,-1.5975362,-1.580011,-1.5636566,-1.5498086
 ,-1.5387654,-1.5301505,-1.5235318,-1.5184985,-1.5146923,-1.511818,-1.5
 096439,-1.5079929,-1.5067328,-1.5057656,-1.5050193,-1.5044404,-1.50398
 95,-1.5036371,-1.6060297,-1.6596737,-1.6775835,-1.6769937,-1.6667026,-
 1.6514678,-1.6339429,-1.6156431,-1.5974565,-1.5799127,-1.5634965,-1.54
 95847,-1.5385002,-1.5298565,-1.5232176,-1.5181707,-1.5143555,-1.511475
 4,-1.5092976,-1.5076443,-1.5063827,-1.5054146,-1.5046676,-1.5040883,-1
 .5036371,-1.5032844\S2=0.751341,0.751661,0.751913,0.752043,0.752028,0.
 75188,0.751643,0.751365,0.751088,0.750839,0.750631,0.750465,0.750339,0
 .750245,0.750176,0.750127,0.750091,0.750066,0.750048,0.750035,0.750026
 ,0.750019,0.750014,0.75001,0.750007,0.750005,0.751661,0.752151,0.75260
 2,0.75291,0.752998,0.752856,0.752538,0.752126,0.751696,0.751301,0.7509
 69,0.750707,0.750508,0.750361,0.750256,0.750181,0.750128,0.750091,0.75
 0065,0.750047,0.750034,0.750025,0.750018,0.750013,0.750009,0.750007,0.
 751913,0.752602,0.75334,0.753977,0.754346,0.754351,0.754014,0.753446,0
 .752786,0.752146,0.751592,0.75115,0.750815,0.750571,0.750397,0.750276,
 0.750192,0.750134,0.750094,0.750066,0.750047,0.750033,0.750024,0.75001
 7,0.750012,0.750008,0.752043,0.75291,0.753977,0.755097,0.756007,0.7564
 52,0.756317,0.755677,0.754734,0.753712,0.752773,0.751999,0.751405,0.75
 0971,0.750665,0.750453,0.750309,0.750211,0.750145,0.7501,0.750069,0.75
 0048,0.750034,0.750024,0.750016,0.750011,0.752028,0.752998,0.754346,0.
 756007,0.75771,0.759031,0.759582,0.75922,0.75811,0.756601,0.755045,0.7
 53673,0.752583,0.751773,0.751199,0.750804,0.750538,0.75036,0.750242,0.
 750163,0.750111,0.750075,0.750052,0.750035,0.750024,0.750016,0.75188,0
 .752856,0.754351,0.756452,0.759031,0.761639,0.763596,0.764306,0.763594
 ,0.761768,0.759406,0.757049,0.755032,0.753469,0.752336,0.751552,0.7510
 23,0.750673,0.750443,0.750293,0.750194,0.750129,0.750086,0.750058,0.75
 0039,0.750026,0.751643,0.752538,0.754014,0.756317,0.759582,0.763595,0.
 767626,0.770588,0.771579,0.770379,0.767508,0.763868,0.760285,0.757256,
 0.75494,0.753285,0.752153,0.7514,0.750909,0.75059,0.750384,0.75025,0.7
 50164,0.750107,0.75007,0.750046,0.751365,0.752126,0.753446,0.755677,0.
 75922,0.764306,0.770588,0.776871,0.781461,0.783037,0.781319,0.777068,0
 .771585,0.766097,0.761389,0.757753,0.75514,0.753351,0.752164,0.751391,
 0.750893,0.750574,0.750369,0.750237,0.750152,0.750098,0.751088,0.75169
 6,0.752786,0.754734,0.75811,0.763594,0.771579,0.781461,0.791301,0.7985
 8,0.801502,0.799709,0.794131,0.786384,0.77812,0.770577,0.764407,0.7597
 52,0.756444,0.754189,0.752696,0.751725,0.751099,0.750699,0.750443,0.75
 028,0.750839,0.751301,0.752146,0.753712,0.756601,0.761768,0.770379,0.7
 83037,0.79858,0.81392,0.82562,0.83155,0.83135,0.825999,0.817135,0.8064
 88,0.795515,0.785254,0.776325,0.768999,0.763293,0.75905,0.756021,0.753
 934,0.752529,0.751608,0.750631,0.750969,0.751592,0.752773,0.755045,0.7
 59406,0.767508,0.781319,0.801502,0.82562,0.849018,0.867586,0.879293,0.
 884057,0.883006,0.877761,0.869925,0.860816,0.851376,0.842208,0.83365,0
 .825859,0.818896,0.812729,0.807329,0.802624,0.750465,0.750707,0.75115,
 0.751999,0.753673,0.757049,0.763868,0.777068,0.799709,0.83155,0.867586
 ,0.90158,0.92943,0.949694,0.962779,0.970023,0.973033,0.973277,0.971905
 ,0.969722,0.967239,0.964756,0.962419,0.960309,0.958439,0.956804,0.7503
 39,0.750508,0.750815,0.751405,0.752583,0.755032,0.760285,0.771585,0.79
 4131,0.83135,0.879293,0.92943,0.974991,1.012734,1.042037,1.063725,1.07
 9215,1.089997,1.097365,1.102327,1.10562,1.107757,1.109097,1.109885,1.1
 1029,1.110438,0.750245,0.750361,0.750571,0.750971,0.751773,0.753469,0.
 757256,0.766097,0.786384,0.825999,0.884056,0.949694,1.012734,1.067746,
 1.112922,1.148519,1.175776,1.196247,1.211429,1.222598,1.230765,1.2367,
 1.240983,1.24404,1.246195,1.247692,0.750176,0.750256,0.750397,0.750665
 ,0.751199,0.752336,0.75494,0.761389,0.77812,0.817135,0.883007,0.962779
 ,1.042037,1.112922,1.172451,1.220384,1.257867,1.286593,1.308311,1.3245
 87,1.336708,1.345688,1.352304,1.357152,1.360679,1.363217,0.750127,0.75
 0181,0.750276,0.750453,0.750804,0.751552,0.753285,0.757753,0.770577,0.
 806488,0.877761,0.970024,1.063725,1.148519,1.220384,1.278701,1.324608,
 1.359992,1.386884,1.407134,1.42229,1.433581,1.441956,1.448143,1.452688
 ,1.456008,0.750091,0.750128,0.750192,0.750309,0.750538,0.751023,0.7521
 53,0.75514,0.764407,0.795515,0.869925,0.973033,1.079215,1.175776,1.257
 867,1.324607,1.377191,1.417731,1.44854,1.471741,1.489112,1.502065,1.51
 1692,1.518823,1.524086,1.527955,0.750066,0.750091,0.750134,0.750211,0.
 75036,0.750673,0.7514,0.753351,0.759752,0.785254,0.860816,0.973277,1.0
 89997,1.196247,1.286593,1.359992,1.417731,1.462154,1.495841,1.521158,1
 .540084,1.554184,1.564663,1.572431,1.578176,1.58241,0.750048,0.750065,
 0.750094,0.750145,0.750242,0.750443,0.750909,0.752164,0.756444,0.77632
 5,0.851376,0.971905,1.097365,1.211429,1.308311,1.386884,1.44854,1.4958
 41,1.531603,1.558408,1.5784,1.59327,1.604311,1.612495,1.618551,1.62302
 ,0.750035,0.750047,0.750066,0.7501,0.750163,0.750293,0.75059,0.751391,
 0.754189,0.768999,0.842208,0.969722,1.102327,1.222598,1.324587,1.40713
 4,1.471741,1.521158,1.558408,1.586248,1.606963,1.622342,1.633746,1.642
 195,1.648446,1.653064,0.750026,0.750034,0.750047,0.750069,0.750111,0.7
 50194,0.750384,0.750893,0.752696,0.763293,0.83365,0.967239,1.10562,1.2
 30765,1.336708,1.42229,1.489112,1.540084,1.5784,1.606963,1.628167,1.64
 388,1.655517,1.664131,1.670503,1.675211,0.750019,0.750025,0.750033,0.7
 50048,0.750075,0.750129,0.75025,0.750574,0.751725,0.75905,0.825859,0.9
 64756,1.107757,1.2367,1.345688,1.433581,1.502065,1.554184,1.59327,1.62
 2342,1.64388,1.659814,1.671598,1.680315,1.68676,1.691523,0.750014,0.75
 0018,0.750024,0.750034,0.750052,0.750086,0.750164,0.750369,0.751099,0.
 756021,0.818896,0.962419,1.109097,1.240983,1.352304,1.441956,1.511692,
 1.564663,1.604311,1.633746,1.655517,1.671598,1.683478,1.692258,1.69874
 6,1.70354,0.75001,0.750013,0.750017,0.750024,0.750035,0.750058,0.75010
 7,0.750237,0.750699,0.753934,0.812729,0.960309,1.109885,1.24404,1.3571
 52,1.448143,1.518823,1.572431,1.612495,1.642195,1.664131,1.680315,1.69
 2258,1.701076,1.70759,1.712401,0.750007,0.750009,0.750012,0.750016,0.7
 50024,0.750039,0.75007,0.750152,0.750443,0.752529,0.80733,0.958439,1.1
 1029,1.246195,1.360679,1.452688,1.524086,1.578176,1.618551,1.648446,1.
 670503,1.68676,1.698746,1.70759,1.714118,1.718938,0.750005,0.750007,0.
 750008,0.750011,0.750016,0.750026,0.750046,0.750098,0.75028,0.751608,0
 .802624,0.956804,1.110438,1.247692,1.363217,1.456008,1.527955,1.58241,
 1.62302,1.653064,1.675211,1.691523,1.70354,1.712401,1.718938,1.723763\
 S2-1=0.,0.,0.,0.,0.,0.,0.,0.,0.,0.,0.,0.,0.,0.,0.,0.,0.,0.,0.,0.,0.,0.
 ,0.,0.,0.,0.,0.,0.,0.,0.,0.,0.,0.,0.,0.,0.,0.,0.,0.,0.,0.,0.,0.,0.,0.,
 0.,0.,0.,0.,0.,0.,0.,0.,0.,0.,0.,0.,0.,0.,0.,0.,0.,0.,0.,0.,0.,0.,0.,0
 .,0.,0.,0.,0.,0.,0.,0.,0.,0.,0.,0.,0.,0.,0.,0.,0.,0.,0.,0.,0.,0.,0.,0.
 ,0.,0.,0.,0.,0.,0.,0.,0.,0.,0.,0.,0.,0.,0.,0.,0.,0.,0.,0.,0.,0.,0.,0.,
 0.,0.,0.,0.,0.,0.,0.,0.,0.,0.,0.,0.,0.,0.,0.,0.,0.,0.,0.,0.,0.,0.,0.,0
 .,0.,0.,0.,0.,0.,0.,0.,0.,0.,0.,0.,0.,0.,0.,0.,0.,0.,0.,0.,0.,0.,0.,0.
 ,0.,0.,0.,0.,0.,0.,0.,0.,0.,0.,0.,0.,0.,0.,0.,0.,0.,0.,0.,0.,0.,0.,0.,
 0.,0.,0.,0.,0.,0.,0.,0.,0.,0.,0.,0.,0.,0.,0.,0.,0.,0.,0.,0.,0.,0.,0.,0
 .,0.,0.,0.,0.,0.,0.,0.,0.,0.,0.,0.,0.,0.,0.,0.,0.,0.,0.,0.,0.,0.,0.,0.
 ,0.,0.,0.,0.,0.,0.,0.,0.,0.,0.,0.,0.,0.,0.,0.,0.,0.,0.,0.,0.,0.,0.,0.,
 0.,0.,0.,0.,0.,0.,0.,0.,0.,0.,0.,0.,0.,0.,0.,0.,0.,0.,0.,0.,0.,0.,0.,0
 .,0.,0.,0.,0.,0.,0.,0.,0.,0.,0.,0.,0.,0.,0.,0.,0.,0.,0.,0.,0.,0.,0.,0.
 ,0.,0.,0.,0.,0.,0.,0.,0.,0.,0.,0.,0.,0.,0.,0.,0.,0.,0.,0.,0.,0.,0.,0.,
 0.,0.,0.,0.,0.,0.,0.,0.,0.,0.,0.,0.,0.,0.,0.,0.,0.,0.,0.,0.,0.,0.,0.,0
 .,0.,0.,0.,0.,0.,0.,0.,0.,0.,0.,0.,0.,0.,0.,0.,0.,0.,0.,0.,0.,0.,0.,0.
 ,0.,0.,0.,0.,0.,0.,0.,0.,0.,0.,0.,0.,0.,0.,0.,0.,0.,0.,0.,0.,0.,0.,0.,
 0.,0.,0.,0.,0.,0.,0.,0.,0.,0.,0.,0.,0.,0.,0.,0.,0.,0.,0.,0.,0.,0.,0.,0
 .,0.,0.,0.,0.,0.,0.,0.,0.,0.,0.,0.,0.,0.,0.,0.,0.,0.,0.,0.,0.,0.,0.,0.
 ,0.,0.,0.,0.,0.,0.,0.,0.,0.,0.,0.,0.,0.,0.,0.,0.,0.,0.,0.,0.,0.,0.,0.,
 0.,0.,0.,0.,0.,0.,0.,0.,0.,0.,0.,0.,0.,0.,0.,0.,0.,0.,0.,0.,0.,0.,0.,0
 .,0.,0.,0.,0.,0.,0.,0.,0.,0.,0.,0.,0.,0.,0.,0.,0.,0.,0.,0.,0.,0.,0.,0.
 ,0.,0.,0.,0.,0.,0.,0.,0.,0.,0.,0.,0.,0.,0.,0.,0.,0.,0.,0.,0.,0.,0.,0.,
 0.,0.,0.,0.,0.,0.,0.,0.,0.,0.,0.,0.,0.,0.,0.,0.,0.,0.,0.,0.,0.,0.,0.,0
 .,0.,0.,0.,0.,0.,0.,0.,0.,0.,0.,0.,0.,0.,0.,0.,0.,0.,0.,0.,0.,0.,0.,0.
 ,0.,0.,0.,0.,0.,0.,0.,0.,0.,0.,0.,0.,0.,0.,0.,0.,0.,0.,0.,0.,0.,0.,0.,
 0.,0.,0.,0.,0.,0.,0.,0.,0.,0.,0.,0.,0.,0.,0.,0.,0.,0.,0.,0.,0.,0.,0.,0
 .,0.,0.,0.,0.,0.,0.,0.,0.,0.,0.,0.,0.,0.,0.,0.,0.,0.,0.,0.,0.,0.,0.,0.
 ,0.,0.,0.,0.,0.,0.,0.,0.,0.,0.,0.,0.,0.,0.,0.,0.,0.,0.,0.,0.,0.,0.,0.,
 0.\S2A=0.75,0.75,0.75,0.75,0.75,0.75,0.75,0.75,0.75,0.75,0.75,0.75,0.7
 5,0.75,0.75,0.75,0.75,0.75,0.75,0.75,0.75,0.75,0.75,0.75,0.75,0.75,0.7
 5,0.75,0.75,0.75,0.75,0.75,0.75,0.75,0.75,0.75,0.75,0.75,0.75,0.75,0.7
 5,0.75,0.75,0.75,0.75,0.75,0.75,0.75,0.75,0.75,0.75,0.75,0.75,0.75,0.7
 5,0.75,0.75,0.75,0.75,0.75,0.75,0.75,0.75,0.75,0.75,0.75,0.75,0.75,0.7
 5,0.75,0.75,0.75,0.75,0.75,0.75,0.75,0.75,0.75,0.75,0.75,0.75,0.75,0.7
 5,0.75,0.75,0.75,0.75,0.75,0.75,0.75,0.75,0.75,0.75,0.75,0.75,0.75,0.7
 5,0.75,0.75,0.75,0.75,0.75,0.75,0.75,0.75,0.75,0.75,0.75,0.75,0.75,0.7
 5,0.75,0.75,0.75,0.75,0.75,0.75,0.75,0.75,0.75,0.75,0.75,0.75,0.75,0.7
 5,0.75,0.75,0.75,0.75,0.75,0.75,0.75,0.75,0.75,0.75,0.75,0.75,0.75,0.7
 5,0.75,0.75,0.75,0.75,0.75,0.75,0.75,0.75,0.75,0.75,0.75,0.75,0.75,0.7
 5,0.75,0.75,0.75,0.75,0.75,0.75,0.75,0.75,0.75,0.75,0.75,0.75,0.75,0.7
 5,0.75,0.75,0.75,0.75,0.75,0.75,0.75,0.75,0.75,0.75,0.75,0.75,0.75,0.7
 5,0.75,0.75,0.75,0.75,0.75,0.75,0.75,0.75,0.75,0.75,0.75,0.75,0.75,0.7
 5,0.75,0.75,0.75,0.75,0.75,0.75,0.75,0.75,0.75,0.75,0.75,0.75,0.75,0.7
 5,0.75,0.75,0.75,0.75,0.75,0.75,0.75,0.75,0.75,0.75,0.75,0.75,0.75,0.7
 5,0.75,0.75,0.75,0.75,0.75,0.75,0.75,0.75,0.75,0.75,0.75,0.75,0.75,0.7
 5,0.75,0.75,0.75,0.75,0.75,0.75,0.75,0.75,0.75,0.75,0.75,0.75,0.75,0.7
 5,0.75,0.75,0.75,0.75,0.75,0.75,0.75,0.75,0.75,0.75,0.75,0.75,0.75,0.7
 5,0.75,0.75,0.75,0.75,0.75,0.75,0.75,0.75,0.75,0.75,0.75,0.75,0.75,0.7
 5,0.75,0.75,0.75,0.75,0.75,0.75,0.75,0.75,0.75,0.75,0.75,0.75,0.75,0.7
 5,0.75,0.75,0.75,0.75,0.75,0.75,0.75,0.75,0.75,0.75,0.75,0.75,0.75,0.7
 5,0.75,0.75,0.75,0.75,0.75,0.75,0.75,0.75,0.75,0.75,0.75,0.75,0.75,0.7
 5,0.75,0.75,0.75,0.75,0.75,0.75,0.75,0.75,0.75,0.75,0.75,0.75,0.75,0.7
 5,0.75,0.75,0.75,0.75,0.75,0.75,0.75,0.75,0.75,0.75,0.75,0.75,0.75,0.7
 5,0.75,0.75,0.75,0.75,0.75,0.75,0.75,0.75,0.75,0.75,0.75,0.75,0.75,0.7
 5,0.75,0.75,0.75,0.75,0.75,0.75,0.75,0.75,0.75,0.75,0.75,0.75,0.75,0.7
 5,0.75,0.75,0.75,0.75,0.75,0.75,0.75,0.75,0.75,0.75,0.75,0.75,0.75,0.7
 5,0.75,0.75,0.75,0.75,0.75,0.75,0.75,0.75,0.75,0.75,0.75,0.75,0.75,0.7
 5,0.75,0.75,0.75,0.75,0.75,0.75,0.75,0.75,0.75,0.75,0.75,0.75,0.75,0.7
 5,0.75,0.75,0.75,0.75,0.75,0.75,0.75,0.75,0.75,0.75,0.75,0.75,0.75,0.7
 5,0.75,0.75,0.75,0.75,0.75,0.75,0.75,0.75,0.75,0.75,0.75,0.75,0.75,0.7
 5,0.75,0.75,0.75,0.75,0.75,0.75,0.75,0.75,0.75,0.75,0.75,0.75,0.75,0.7
 5,0.75,0.75,0.75,0.75,0.75,0.75,0.75,0.75,0.75,0.75,0.75,0.75,0.75,0.7
 5,0.75,0.75,0.75,0.75,0.75,0.75,0.75,0.75,0.75,0.75,0.75,0.75,0.75,0.7
 5,0.75,0.75,0.75,0.75,0.75,0.75,0.75,0.75,0.75,0.75,0.75,0.75,0.75,0.7
 5,0.75,0.75,0.75,0.75,0.75,0.75,0.75,0.75,0.75,0.75,0.75,0.75,0.75,0.7
 5,0.75,0.75,0.75,0.75,0.75,0.75,0.75,0.75,0.75,0.75,0.75,0.75,0.75,0.7
 5,0.75,0.75,0.75,0.75,0.75,0.75,0.75,0.75,0.75,0.75,0.75,0.75,0.75,0.7
 5,0.75,0.75,0.75,0.75,0.75,0.75,0.75,0.75,0.75,0.75,0.75,0.75,0.75,0.7
 5,0.75,0.75,0.75,0.75,0.75,0.75,0.75,0.75,0.75,0.75,0.75,0.75,0.75,0.7
 5,0.75,0.75,0.75,0.75,0.75,0.75,0.75,0.75,0.75,0.75,0.75,0.75,0.75,0.7
 5,0.75,0.75,0.75,0.75,0.75,0.75,0.75,0.75,0.75,0.75,0.75,0.75,0.75,0.7
 5,0.75,0.75,0.75,0.75,0.75,0.75,0.75,0.75,0.75,0.75,0.75,0.75,0.75,0.7
 5,0.75,0.75,0.75,0.75,0.75,0.75,0.75,0.75,0.75,0.75,0.75,0.75,0.75,0.7
 5,0.75,0.75,0.75,0.75,0.75,0.75,0.75,0.75,0.75,0.75,0.75,0.75,0.75,0.7
 5,0.75,0.75,0.75,0.75,0.75,0.75,0.75,0.75,0.75,0.75,0.75,0.75,0.75,0.7
 5,0.75,0.75,0.75,0.75,0.75,0.75,0.75,0.75,0.75,0.75,0.75,0.75,0.75,0.7
 5,0.75,0.75,0.75,0.75,0.75\RMSD=1.345e-09,8.154e-10,8.752e-10,7.952e-0
 9,7.163e-09,5.265e-09,3.453e-09,2.247e-09,1.689e-09,1.586e-09,1.614e-0
 9,7.787e-09,5.184e-09,8.926e-09,6.745e-09,4.383e-09,4.039e-09,7.510e-0
 9,4.158e-09,4.616e-09,3.448e-09,5.387e-09,6.731e-09,5.498e-09,1.787e-0
 9,5.311e-09,7.426e-09,3.916e-09,1.755e-09,4.675e-10,2.897e-10,2.410e-1
 0,8.737e-09,6.442e-09,3.967e-09,3.010e-09,2.208e-09,5.849e-09,4.045e-0
 9,7.573e-09,3.287e-09,4.434e-10,9.907e-09,7.185e-09,7.894e-09,6.776e-0
 9,4.801e-09,7.354e-09,5.794e-10,5.259e-10,9.496e-09,2.696e-10,6.020e-0
 9,4.564e-09,4.908e-09,8.511e-10,7.965e-09,8.647e-10,1.210e-09,1.102e-0
 9,6.052e-09,9.210e-09,4.900e-09,3.361e-09,2.834e-09,3.513e-09,2.750e-0
 9,5.190e-09,7.795e-09,1.377e-09,1.448e-09,2.149e-09,7.293e-09,1.123e-0
 9,8.029e-10,7.687e-10,4.353e-10,3.355e-10,2.508e-09,4.833e-09,9.191e-0
 9,1.339e-09,1.895e-09,3.673e-09,2.269e-09,3.351e-09,1.261e-09,6.522e-0
 9,7.289e-09,4.982e-09,7.565e-09,9.829e-09,6.632e-09,9.453e-09,4.931e-0
 9,1.974e-09,7.956e-09,3.059e-09,1.647e-09,1.254e-09,9.160e-10,1.258e-0
 9,6.470e-10,5.414e-10,3.622e-09,3.671e-09,1.373e-09,1.120e-09,2.897e-0
 9,2.968e-09,8.690e-09,9.440e-09,9.705e-09,8.324e-09,5.152e-09,5.304e-0
 9,5.551e-09,7.602e-09,7.436e-09,8.531e-09,9.440e-09,4.963e-09,6.374e-0
 9,7.281e-09,6.511e-09,2.579e-09,1.272e-09,2.260e-09,1.129e-09,1.271e-0
 9,2.269e-09,2.227e-09,8.794e-09,3.079e-09,3.500e-09,5.414e-09,4.076e-0
 9,4.093e-09,4.959e-09,4.202e-09,2.681e-09,8.184e-09,5.967e-09,9.974e-0
 9,5.387e-09,3.308e-09,7.069e-09,4.333e-09,3.078e-09,9.130e-09,7.259e-0
 9,3.157e-09,7.347e-09,5.388e-10,2.068e-09,3.107e-09,1.356e-09,9.421e-0
 9,6.871e-09,4.087e-09,8.463e-09,9.450e-09,3.131e-09,5.206e-09,1.330e-0
 9,2.140e-09,6.266e-09,4.212e-09,1.875e-09,9.106e-09,4.649e-09,9.525e-0
 9,8.040e-09,7.811e-09,5.447e-09,8.366e-09,3.446e-09,9.834e-09,4.578e-0
 9,4.715e-09,9.904e-09,1.180e-09,1.500e-09,6.467e-09,6.698e-10,2.688e-0
 9,2.799e-09,5.167e-09,9.705e-09,3.297e-09,7.175e-10,1.546e-09,6.198e-0
 9,2.899e-10,6.013e-10,4.041e-09,3.032e-09,2.377e-09,5.547e-09,2.944e-0
 9,4.018e-09,9.201e-09,5.761e-09,1.278e-09,8.468e-09,2.459e-09,3.787e-1
 0,1.982e-09,1.749e-09,6.156e-09,9.767e-09,1.285e-09,3.160e-09,2.763e-0
 9,5.652e-09,6.311e-09,3.565e-09,2.310e-09,7.961e-09,3.627e-10,8.479e-1
 0,1.591e-09,5.390e-09,2.036e-09,1.320e-09,2.651e-09,3.477e-09,3.819e-0
 9,7.623e-09,2.744e-10,4.801e-10,1.516e-10,8.188e-10,8.262e-09,1.864e-0
 9,2.915e-09,1.835e-09,8.276e-09,4.193e-09,5.737e-09,9.002e-09,6.119e-0
 9,5.812e-09,1.241e-09,1.618e-09,1.488e-09,1.271e-09,1.564e-09,1.217e-0
 9,4.204e-09,2.269e-09,8.630e-09,5.745e-09,9.063e-09,2.171e-10,9.029e-1
 0,5.851e-10,1.807e-10,8.364e-10,1.022e-09,8.454e-09,4.789e-09,2.155e-0
 9,6.303e-09,3.850e-09,9.825e-09,3.999e-09,4.885e-09,8.436e-09,7.346e-0
 9,8.721e-09,1.106e-09,6.120e-09,1.644e-09,4.512e-09,3.595e-10,2.497e-0
 9,3.441e-10,3.148e-10,4.052e-10,9.053e-09,2.213e-09,7.431e-10,1.466e-0
 9,2.197e-09,3.089e-09,6.785e-09,3.199e-09,2.782e-09,5.341e-09,2.486e-0
 9,6.231e-09,5.804e-09,4.956e-09,5.020e-10,1.075e-09,3.350e-09,9.712e-1
 0,2.295e-09,8.284e-09,2.094e-09,1.469e-09,8.350e-09,9.395e-09,9.086e-0
 9,4.918e-09,1.832e-09,2.826e-09,8.556e-09,2.446e-09,8.891e-09,1.368e-0
 9,5.668e-09,1.870e-09,7.428e-09,4.889e-09,1.083e-09,8.569e-09,4.126e-0
 9,7.317e-09,1.039e-09,8.823e-10,8.106e-09,2.377e-09,1.599e-09,9.824e-0
 9,6.662e-09,5.680e-09,3.769e-10,1.215e-09,6.802e-09,1.021e-09,2.484e-1
 0,7.411e-09,7.739e-09,8.575e-09,8.898e-10,4.681e-09,4.327e-09,4.694e-0
 9,7.510e-09,5.601e-09,1.215e-09,5.083e-09,2.918e-09,9.487e-09,2.816e-0
 9,1.869e-09,8.112e-09,4.017e-09,2.228e-09,7.496e-09,2.669e-09,5.283e-0
 9,2.637e-09,6.098e-09,4.401e-09,2.561e-09,1.779e-10,7.619e-09,6.090e-1
 0,7.675e-10,6.716e-10,4.712e-10,2.937e-09,5.443e-09,8.905e-10,3.945e-0
 9,2.620e-09,2.109e-09,9.357e-09,2.846e-09,3.582e-09,8.131e-09,6.087e-0
 9,3.559e-09,3.515e-09,9.205e-09,1.041e-09,2.611e-09,2.828e-09,6.091e-0
 9,1.818e-09,1.295e-09,4.755e-09,8.946e-10,2.846e-09,9.191e-09,9.101e-0
 9,3.135e-10,2.227e-09,3.801e-09,9.483e-10,2.807e-09,9.704e-10,6.423e-0
 9,9.786e-09,7.530e-10,2.650e-09,1.291e-09,1.189e-09,7.848e-09,5.159e-0
 9,4.190e-09,2.301e-09,4.295e-09,8.140e-09,3.302e-09,5.823e-10,9.486e-0
 9,4.471e-09,1.298e-09,1.321e-09,3.037e-09,3.133e-09,2.500e-09,4.927e-0
 9,5.058e-09,6.958e-10,1.746e-09,2.604e-10,1.980e-09,8.594e-10,5.499e-0
 9,4.660e-09,9.330e-10,1.040e-09,6.242e-09,1.910e-09,3.128e-09,8.732e-0
 9,5.314e-09,4.313e-09,2.648e-09,9.156e-09,6.487e-09,2.875e-09,7.520e-1
 0,6.354e-09,1.460e-09,1.534e-09,1.176e-09,5.352e-09,5.106e-09,5.159e-1
 0,1.508e-09,9.975e-10,1.085e-09,1.494e-09,4.531e-09,3.566e-10,3.966e-0
 9,2.758e-09,6.002e-09,1.047e-09,2.863e-09,5.968e-09,1.133e-09,4.198e-0
 9,3.096e-10,7.695e-09,4.162e-09,1.754e-09,2.329e-09,6.289e-09,8.161e-1
 0,5.116e-09,7.597e-09,3.589e-09,5.784e-09,8.989e-10,1.389e-09,1.641e-0
 9,1.249e-09,3.407e-09,7.684e-10,2.926e-09,4.293e-09,1.500e-09,1.659e-0
 9,3.651e-09,3.409e-09,2.223e-10,8.945e-09,3.584e-09,9.895e-09,5.181e-0
 9,9.672e-09,4.393e-09,1.371e-09,5.236e-09,6.748e-09,3.775e-09,3.993e-0
 9,3.563e-09,8.024e-09,5.014e-10,1.186e-09,1.516e-09,1.793e-09,6.134e-0
 9,3.999e-09,7.298e-09,6.153e-09,9.763e-09,2.911e-09,1.046e-09,9.842e-1
 0,8.396e-10,5.893e-09,6.376e-10,6.674e-09,3.109e-09,5.685e-09,3.232e-0
 9,2.129e-09,4.872e-09,4.548e-09,3.002e-09,3.267e-09,5.184e-09,8.996e-1
 0,5.899e-09,8.487e-10,2.248e-09,1.804e-09,6.366e-09,3.455e-09,4.766e-0
 9,7.240e-11,2.151e-09,2.108e-09,5.620e-10,9.812e-10,4.446e-10,5.726e-0
 9,9.019e-09,3.793e-09,6.692e-09,3.815e-09,2.669e-09,2.047e-09,3.613e-0
 9,2.988e-09,2.207e-09,2.303e-09,3.911e-09,8.466e-09,5.524e-10,8.272e-1
 0,1.620e-09,1.570e-09,4.563e-09,6.522e-10,8.996e-10,1.931e-09,3.461e-0
 9,1.994e-09,7.070e-10,1.292e-09,5.651e-10,2.626e-10,5.458e-09,7.543e-0
 9,4.633e-09,2.857e-09,2.253e-09,1.288e-09,2.481e-09,2.040e-09,2.020e-0
 9,2.064e-09,4.994e-09,2.379e-10,5.270e-10,1.170e-09,7.476e-09,1.535e-0
 9,3.206e-09,2.464e-10,5.228e-09,3.686e-10,8.469e-10,4.232e-09,4.092e-0
 9,1.501e-09,7.358e-10,5.874e-10,5.450e-09,8.201e-09,3.271e-09,2.821e-0
 9,2.778e-09,2.304e-09,2.850e-09,2.777e-09,2.583e-09,3.049e-09,3.500e-0
 9,4.417e-10,1.281e-09,1.211e-09,2.332e-09,4.837e-09,3.434e-09,3.523e-1
 0,4.501e-09,6.398e-10,6.085e-10,7.824e-09,1.470e-09,6.354e-09,4.428e-1
 0,3.423e-10,6.105e-09,3.809e-09,2.176e-09,2.319e-09,2.405e-09,1.980e-0
 9,2.418e-09,2.289e-09,2.121e-09,3.066e-09,5.173e-09,8.420e-10,1.227e-0
 9,1.719e-09,2.282e-09,9.448e-09,4.990e-09,1.540e-09,3.406e-10,1.367e-0
 9,6.853e-11,7.941e-09,4.144e-09,6.129e-10,2.803e-10,1.181e-10,9.224e-0
 9,1.600e-09,1.633e-09,1.874e-09,1.854e-09,1.909e-09,2.602e-09,1.939e-0
 9,1.308e-09,2.341e-09,4.276e-09,7.939e-10,1.045e-09,1.112e-09,9.603e-1
 0,3.061e-09,5.352e-09,4.356e-10,6.592e-10,1.536e-09,2.405e-09,1.470e-0
 9,3.841e-10,3.540e-10,5.268e-10,7.942e-09,5.234e-09,8.094e-09,2.028e-0
 9,7.624e-09,9.179e-09,2.442e-09,2.848e-09,2.712e-09,2.169e-09,1.849e-0
 9\PG=D*H [O(H1),C*(H1.H1)]\\@


 "ANNA, YOU MUSN'T SPEAK OF OXIDIZED MURIATIC ACID
 ANYMORE, FROM NOW ON YOU MUST SAY CHLORINE."
   -- JENS JACOB BERZELIUS, IN 1820, TO HIS COOK, WHO HAD
 COMPLAINED OF THE SMELL OF THE FLASK SHE WAS CLEANING.
 Job cpu time:       0 days  0 hours 32 minutes 54.4 seconds.
 Elapsed time:       0 days  0 hours 32 minutes 23.4 seconds.
 File lengths (MBytes):  RWF=     12 Int=      0 D2E=      0 Chk=      6 Scr=      1
 Normal termination of Gaussian 16 at Sat Feb 29 22:06:49 2020.
