 Entering Gaussian System, Link 0=g16
 Input=R.com
 Output=R.log
 Initial command:
 /opt/g16/l1.exe "/scratch/Grace/g03/Gau-1438.inp" -scrdir="/scratch/Grace/g03/"
 Entering Link 1 = /opt/g16/l1.exe PID=      1439.
  
 Copyright (c) 1988,1990,1992,1993,1995,1998,2003,2009,2016,
            Gaussian, Inc.  All Rights Reserved.
  
 This is part of the Gaussian(R) 16 program.  It is based on
 the Gaussian(R) 09 system (copyright 2009, Gaussian, Inc.),
 the Gaussian(R) 03 system (copyright 2003, Gaussian, Inc.),
 the Gaussian(R) 98 system (copyright 1998, Gaussian, Inc.),
 the Gaussian(R) 94 system (copyright 1995, Gaussian, Inc.),
 the Gaussian 92(TM) system (copyright 1992, Gaussian, Inc.),
 the Gaussian 90(TM) system (copyright 1990, Gaussian, Inc.),
 the Gaussian 88(TM) system (copyright 1988, Gaussian, Inc.),
 the Gaussian 86(TM) system (copyright 1986, Carnegie Mellon
 University), and the Gaussian 82(TM) system (copyright 1983,
 Carnegie Mellon University). Gaussian is a federally registered
 trademark of Gaussian, Inc.
  
 This software contains proprietary and confidential information,
 including trade secrets, belonging to Gaussian, Inc.
  
 This software is provided under written license and may be
 used, copied, transmitted, or stored only in accord with that
 written license.
  
 The following legend is applicable only to US Government
 contracts under FAR:
  
                    RESTRICTED RIGHTS LEGEND
  
 Use, reproduction and disclosure by the US Government is
 subject to restrictions as set forth in subparagraphs (a)
 and (c) of the Commercial Computer Software - Restricted
 Rights clause in FAR 52.227-19.
  
 Gaussian, Inc.
 340 Quinnipiac St., Bldg. 40, Wallingford CT 06492
  
  
 ---------------------------------------------------------------
 Warning -- This program may not be used in any manner that
 competes with the business of Gaussian, Inc. or will provide
 assistance to any competitor of Gaussian, Inc.  The licensee
 of this program is prohibited from giving any competitor of
 Gaussian, Inc. access to this program.  By using this program,
 the user acknowledges that Gaussian, Inc. is engaged in the
 business of creating and licensing software in the field of
 computational chemistry and represents and warrants to the
 licensee that it is not a competitor of Gaussian, Inc. and that
 it will not use this program in any manner prohibited above.
 ---------------------------------------------------------------
  

 Cite this work as:
 Gaussian 16, Revision A.03,
 M. J. Frisch, G. W. Trucks, H. B. Schlegel, G. E. Scuseria, 
 M. A. Robb, J. R. Cheeseman, G. Scalmani, V. Barone, 
 G. A. Petersson, H. Nakatsuji, X. Li, M. Caricato, A. V. Marenich, 
 J. Bloino, B. G. Janesko, R. Gomperts, B. Mennucci, H. P. Hratchian, 
 J. V. Ortiz, A. F. Izmaylov, J. L. Sonnenberg, D. Williams-Young, 
 F. Ding, F. Lipparini, F. Egidi, J. Goings, B. Peng, A. Petrone, 
 T. Henderson, D. Ranasinghe, V. G. Zakrzewski, J. Gao, N. Rega, 
 G. Zheng, W. Liang, M. Hada, M. Ehara, K. Toyota, R. Fukuda, 
 J. Hasegawa, M. Ishida, T. Nakajima, Y. Honda, O. Kitao, H. Nakai, 
 T. Vreven, K. Throssell, J. A. Montgomery, Jr., J. E. Peralta, 
 F. Ogliaro, M. J. Bearpark, J. J. Heyd, E. N. Brothers, K. N. Kudin, 
 V. N. Staroverov, T. A. Keith, R. Kobayashi, J. Normand, 
 K. Raghavachari, A. P. Rendell, J. C. Burant, S. S. Iyengar, 
 J. Tomasi, M. Cossi, J. M. Millam, M. Klene, C. Adamo, R. Cammi, 
 J. W. Ochterski, R. L. Martin, K. Morokuma, O. Farkas, 
 J. B. Foresman, and D. J. Fox, Gaussian, Inc., Wallingford CT, 2016.
 
 ******************************************
 Gaussian 16:  ES64L-G16RevA.03 25-Dec-2016
                15-Apr-2019 
 ******************************************
 -----------------------------------
 #B3LYP/6-31+G(d,p) OPT Freq=hpmodes
 -----------------------------------
 1/18=20,19=15,26=3,38=1/1,3;
 2/9=110,12=2,17=6,18=5,40=1/2;
 3/5=1,6=6,7=111,11=2,25=1,30=1,71=1,74=-5/1,2,3;
 4//1;
 5/5=2,38=5/2;
 6/7=2,8=2,9=2,10=2,28=1/1;
 7//1,2,3,16;
 1/18=20,19=15,26=3/3(2);
 2/9=110/2;
 99//99;
 2/9=110/2;
 3/5=1,6=6,7=111,11=2,25=1,30=1,71=1,74=-5/1,2,3;
 4/5=5,16=3,69=1/1;
 5/5=2,38=5/2;
 7//1,2,3,16;
 1/18=20,19=15,26=3/3(-5);
 2/9=110/2;
 6/7=2,8=2,9=2,10=2,19=2,28=1/1;
 99/9=1/99;
 --------------------------------------------------------------
 the last point of TS1 reverse direction in its IRC calculation
 --------------------------------------------------------------
 Symbolic Z-matrix:
 Charge =  0 Multiplicity = 1
 C                     1.58949   1.1482   -0.42277 
 C                     1.55044  -0.12108   0.41717 
 C                     0.48805  -0.16614   1.50849 
 C                    -0.90754   0.35655   1.09108 
 C                    -0.78659   1.69504   0.33044 
 C                     0.19854   1.65324  -0.84917 
 H                     2.07365   1.91197   0.20685 
 H                     2.24632   0.97498  -1.27972 
 H                    -1.4715    0.55606   2.01272 
 H                    -1.77815   2.00982  -0.02008 
 H                    -0.4553    2.46435   1.04278 
 H                    -0.18851   1.00141  -1.63694 
 H                     0.29283   2.65506  -1.28538 
 H                     0.86789   0.477     2.31731 
 O                     2.38358  -1.00219   0.29548 
 C                    -1.73055  -0.72202   0.35786 
 H                    -1.85242  -1.56628   1.05065 
 H                    -2.73995  -0.33623   0.13007 
 C                    -1.76982  -1.52188  -1.84732 
 N                    -1.06771  -1.25277  -0.82591 
 H                    -2.85704  -1.35278  -1.89914 
 H                    -1.28761  -1.94432  -2.7299 
 H                     0.44404  -1.18591   1.90198 
 

 GradGradGradGradGradGradGradGradGradGradGradGradGradGradGradGradGradGrad
 Berny optimization.
 Initialization pass.
                           ----------------------------
                           !    Initial Parameters    !
                           ! (Angstroms and Degrees)  !
 --------------------------                            --------------------------
 ! Name  Definition              Value          Derivative Info.                !
 --------------------------------------------------------------------------------
 ! R1    R(1,2)                  1.5225         estimate D2E/DX2                !
 ! R2    R(1,6)                  1.54           estimate D2E/DX2                !
 ! R3    R(1,7)                  1.1019         estimate D2E/DX2                !
 ! R4    R(1,8)                  1.0935         estimate D2E/DX2                !
 ! R5    R(2,3)                  1.5237         estimate D2E/DX2                !
 ! R6    R(2,15)                 1.2187         estimate D2E/DX2                !
 ! R7    R(3,4)                  1.5476         estimate D2E/DX2                !
 ! R8    R(3,14)                 1.1009         estimate D2E/DX2                !
 ! R9    R(3,23)                 1.0939         estimate D2E/DX2                !
 ! R10   R(4,5)                  1.5443         estimate D2E/DX2                !
 ! R11   R(4,9)                  1.0988         estimate D2E/DX2                !
 ! R12   R(4,16)                 1.5422         estimate D2E/DX2                !
 ! R13   R(5,6)                  1.5374         estimate D2E/DX2                !
 ! R14   R(5,10)                 1.0978         estimate D2E/DX2                !
 ! R15   R(5,11)                 1.0996         estimate D2E/DX2                !
 ! R16   R(6,12)                 1.0933         estimate D2E/DX2                !
 ! R17   R(6,13)                 1.0967         estimate D2E/DX2                !
 ! R18   R(16,17)                1.0989         estimate D2E/DX2                !
 ! R19   R(16,18)                1.1044         estimate D2E/DX2                !
 ! R20   R(16,20)                1.4568         estimate D2E/DX2                !
 ! R21   R(19,20)                1.2683         estimate D2E/DX2                !
 ! R22   R(19,21)                1.1015         estimate D2E/DX2                !
 ! R23   R(19,22)                1.0908         estimate D2E/DX2                !
 ! A1    A(2,1,6)              113.765          estimate D2E/DX2                !
 ! A2    A(2,1,7)              105.8961         estimate D2E/DX2                !
 ! A3    A(2,1,8)              108.4013         estimate D2E/DX2                !
 ! A4    A(6,1,7)              109.1324         estimate D2E/DX2                !
 ! A5    A(6,1,8)              112.1776         estimate D2E/DX2                !
 ! A6    A(7,1,8)              107.0773         estimate D2E/DX2                !
 ! A7    A(1,2,3)              115.9546         estimate D2E/DX2                !
 ! A8    A(1,2,15)             122.0125         estimate D2E/DX2                !
 ! A9    A(3,2,15)             121.7883         estimate D2E/DX2                !
 ! A10   A(2,3,4)              115.1878         estimate D2E/DX2                !
 ! A11   A(2,3,14)             105.5659         estimate D2E/DX2                !
 ! A12   A(2,3,23)             108.2549         estimate D2E/DX2                !
 ! A13   A(4,3,14)             108.1781         estimate D2E/DX2                !
 ! A14   A(4,3,23)             112.0598         estimate D2E/DX2                !
 ! A15   A(14,3,23)            107.1089         estimate D2E/DX2                !
 ! A16   A(3,4,5)              110.791          estimate D2E/DX2                !
 ! A17   A(3,4,9)              107.3338         estimate D2E/DX2                !
 ! A18   A(3,4,16)             111.9179         estimate D2E/DX2                !
 ! A19   A(5,4,9)              107.2156         estimate D2E/DX2                !
 ! A20   A(5,4,16)             114.444          estimate D2E/DX2                !
 ! A21   A(9,4,16)             104.589          estimate D2E/DX2                !
 ! A22   A(4,5,6)              113.8621         estimate D2E/DX2                !
 ! A23   A(4,5,10)             109.5767         estimate D2E/DX2                !
 ! A24   A(4,5,11)             108.1148         estimate D2E/DX2                !
 ! A25   A(6,5,10)             109.9724         estimate D2E/DX2                !
 ! A26   A(6,5,11)             108.8459         estimate D2E/DX2                !
 ! A27   A(10,5,11)            106.1634         estimate D2E/DX2                !
 ! A28   A(1,6,5)              112.0377         estimate D2E/DX2                !
 ! A29   A(1,6,12)             108.8893         estimate D2E/DX2                !
 ! A30   A(1,6,13)             109.3929         estimate D2E/DX2                !
 ! A31   A(5,6,12)             110.0116         estimate D2E/DX2                !
 ! A32   A(5,6,13)             109.5981         estimate D2E/DX2                !
 ! A33   A(12,6,13)            106.7662         estimate D2E/DX2                !
 ! A34   A(4,16,17)            107.2639         estimate D2E/DX2                !
 ! A35   A(4,16,18)            109.9708         estimate D2E/DX2                !
 ! A36   A(4,16,20)            113.4731         estimate D2E/DX2                !
 ! A37   A(17,16,18)           107.2807         estimate D2E/DX2                !
 ! A38   A(17,16,20)           106.4289         estimate D2E/DX2                !
 ! A39   A(18,16,20)           112.0567         estimate D2E/DX2                !
 ! A40   A(20,19,21)           123.4839         estimate D2E/DX2                !
 ! A41   A(20,19,22)           119.2765         estimate D2E/DX2                !
 ! A42   A(21,19,22)           117.2396         estimate D2E/DX2                !
 ! A43   A(16,20,19)           118.6727         estimate D2E/DX2                !
 ! D1    D(6,1,2,3)            -43.378          estimate D2E/DX2                !
 ! D2    D(6,1,2,15)           142.2105         estimate D2E/DX2                !
 ! D3    D(7,1,2,3)             76.4736         estimate D2E/DX2                !
 ! D4    D(7,1,2,15)           -97.9379         estimate D2E/DX2                !
 ! D5    D(8,1,2,3)           -168.9105         estimate D2E/DX2                !
 ! D6    D(8,1,2,15)            16.678          estimate D2E/DX2                !
 ! D7    D(2,1,6,5)             47.9452         estimate D2E/DX2                !
 ! D8    D(2,1,6,12)           -73.9728         estimate D2E/DX2                !
 ! D9    D(2,1,6,13)           169.6888         estimate D2E/DX2                !
 ! D10   D(7,1,6,5)            -70.0581         estimate D2E/DX2                !
 ! D11   D(7,1,6,12)           168.0239         estimate D2E/DX2                !
 ! D12   D(7,1,6,13)            51.6855         estimate D2E/DX2                !
 ! D13   D(8,1,6,5)            171.4471         estimate D2E/DX2                !
 ! D14   D(8,1,6,12)            49.5292         estimate D2E/DX2                !
 ! D15   D(8,1,6,13)           -66.8093         estimate D2E/DX2                !
 ! D16   D(1,2,3,4)             43.1624         estimate D2E/DX2                !
 ! D17   D(1,2,3,14)           -76.1051         estimate D2E/DX2                !
 ! D18   D(1,2,3,23)           169.4727         estimate D2E/DX2                !
 ! D19   D(15,2,3,4)          -142.4125         estimate D2E/DX2                !
 ! D20   D(15,2,3,14)           98.3201         estimate D2E/DX2                !
 ! D21   D(15,2,3,23)          -16.1021         estimate D2E/DX2                !
 ! D22   D(2,3,4,5)            -46.3369         estimate D2E/DX2                !
 ! D23   D(2,3,4,9)           -163.0901         estimate D2E/DX2                !
 ! D24   D(2,3,4,16)            82.7046         estimate D2E/DX2                !
 ! D25   D(14,3,4,5)            71.4736         estimate D2E/DX2                !
 ! D26   D(14,3,4,9)           -45.2796         estimate D2E/DX2                !
 ! D27   D(14,3,4,16)         -159.485          estimate D2E/DX2                !
 ! D28   D(23,3,4,5)          -170.6759         estimate D2E/DX2                !
 ! D29   D(23,3,4,9)            72.5709         estimate D2E/DX2                !
 ! D30   D(23,3,4,16)          -41.6344         estimate D2E/DX2                !
 ! D31   D(3,4,5,6)             52.2306         estimate D2E/DX2                !
 ! D32   D(3,4,5,10)           175.8531         estimate D2E/DX2                !
 ! D33   D(3,4,5,11)           -68.8567         estimate D2E/DX2                !
 ! D34   D(9,4,5,6)            169.0567         estimate D2E/DX2                !
 ! D35   D(9,4,5,10)           -67.3209         estimate D2E/DX2                !
 ! D36   D(9,4,5,11)            47.9693         estimate D2E/DX2                !
 ! D37   D(16,4,5,6)           -75.4439         estimate D2E/DX2                !
 ! D38   D(16,4,5,10)           48.1785         estimate D2E/DX2                !
 ! D39   D(16,4,5,11)          163.4688         estimate D2E/DX2                !
 ! D40   D(3,4,16,17)           60.1997         estimate D2E/DX2                !
 ! D41   D(3,4,16,18)          176.5528         estimate D2E/DX2                !
 ! D42   D(3,4,16,20)          -57.0483         estimate D2E/DX2                !
 ! D43   D(5,4,16,17)         -172.7024         estimate D2E/DX2                !
 ! D44   D(5,4,16,18)          -56.3492         estimate D2E/DX2                !
 ! D45   D(5,4,16,20)           70.0496         estimate D2E/DX2                !
 ! D46   D(9,4,16,17)          -55.6859         estimate D2E/DX2                !
 ! D47   D(9,4,16,18)           60.6673         estimate D2E/DX2                !
 ! D48   D(9,4,16,20)         -172.9339         estimate D2E/DX2                !
 ! D49   D(4,5,6,1)            -53.7142         estimate D2E/DX2                !
 ! D50   D(4,5,6,12)            67.5594         estimate D2E/DX2                !
 ! D51   D(4,5,6,13)          -175.34           estimate D2E/DX2                !
 ! D52   D(10,5,6,1)          -177.1218         estimate D2E/DX2                !
 ! D53   D(10,5,6,12)          -55.8482         estimate D2E/DX2                !
 ! D54   D(10,5,6,13)           61.2524         estimate D2E/DX2                !
 ! D55   D(11,5,6,1)            66.9647         estimate D2E/DX2                !
 ! D56   D(11,5,6,12)         -171.7617         estimate D2E/DX2                !
 ! D57   D(11,5,6,13)          -54.6612         estimate D2E/DX2                !
 ! D58   D(4,16,20,19)        -142.165          estimate D2E/DX2                !
 ! D59   D(17,16,20,19)        100.1011         estimate D2E/DX2                !
 ! D60   D(18,16,20,19)        -16.8755         estimate D2E/DX2                !
 ! D61   D(21,19,20,16)          1.5588         estimate D2E/DX2                !
 ! D62   D(22,19,20,16)       -178.4025         estimate D2E/DX2                !
 ! D63   D(20,19,21,22)       -179.962          estimate D2E/DX2                !
 --------------------------------------------------------------------------------
 Trust Radius=3.00D-01 FncErr=1.00D-07 GrdErr=1.00D-06 EigMax=2.50D+02 EigMin=1.00D-04
 Number of steps in this run=    138 maximum allowed number of steps=    138.
 GradGradGradGradGradGradGradGradGradGradGradGradGradGradGradGradGradGrad

                          Input orientation:                          
 ---------------------------------------------------------------------
 Center     Atomic      Atomic             Coordinates (Angstroms)
 Number     Number       Type             X           Y           Z
 ---------------------------------------------------------------------
      1          6           0        1.589490    1.148199   -0.422765
      2          6           0        1.550444   -0.121075    0.417171
      3          6           0        0.488048   -0.166137    1.508492
      4          6           0       -0.907535    0.356548    1.091079
      5          6           0       -0.786593    1.695041    0.330441
      6          6           0        0.198541    1.653244   -0.849169
      7          1           0        2.073646    1.911966    0.206848
      8          1           0        2.246317    0.974975   -1.279719
      9          1           0       -1.471495    0.556064    2.012724
     10          1           0       -1.778145    2.009821   -0.020082
     11          1           0       -0.455301    2.464348    1.042780
     12          1           0       -0.188511    1.001411   -1.636939
     13          1           0        0.292831    2.655062   -1.285376
     14          1           0        0.867886    0.476999    2.317307
     15          8           0        2.383581   -1.002189    0.295475
     16          6           0       -1.730547   -0.722017    0.357862
     17          1           0       -1.852418   -1.566283    1.050645
     18          1           0       -2.739950   -0.336232    0.130069
     19          6           0       -1.769824   -1.521876   -1.847323
     20          7           0       -1.067710   -1.252770   -0.825910
     21          1           0       -2.857038   -1.352784   -1.899137
     22          1           0       -1.287613   -1.944323   -2.729895
     23          1           0        0.444035   -1.185912    1.901980
 ---------------------------------------------------------------------
                    Distance matrix (angstroms):
                    1          2          3          4          5
     1  C    0.000000
     2  C    1.522522   0.000000
     3  C    2.582713   1.523712   0.000000
     4  C    3.025487   2.593055   1.547606   0.000000
     5  C    2.551887   2.961003   2.544896   1.544267   0.000000
     6  C    1.540010   2.565047   2.992077   2.582516   1.537438
     7  H    1.101889   2.109794   2.920087   3.476871   2.871115
     8  H    1.093526   2.136586   3.488233   3.993735   3.508512
     9  H    3.956243   3.483737   2.148402   1.098766   2.143930
    10  H    3.499359   3.976357   3.493846   2.173926   1.097783
    11  H    2.839232   3.331488   2.833063   2.156309   1.099552
    12  H    2.158021   2.916043   3.422665   2.893946   2.170117
    13  H    2.167039   3.491016   3.975295   3.517326   2.167409
    14  H    2.911909   2.105729   1.100946   2.161079   2.858070
    15  O    2.402211   1.218724   2.400716   3.648369   4.162484
    16  C    3.889696   3.336098   2.560296   1.542160   2.594989
    17  H    4.624509   3.750918   2.765468   2.142829   3.505840
    18  H    4.610121   4.305369   3.514108   2.182024   2.825212
    19  C    4.521466   4.256096   4.265854   3.592524   4.007238
    20  N    3.603872   3.111385   3.008419   2.508068   3.178956
    21  H    5.310951   5.129160   4.920332   3.957748   4.306623
    22  H    4.812927   4.613331   4.927356   4.476417   4.781386
    23  H    3.487776   2.136042   1.093943   2.205331   3.504864
                    6          7          8          9         10
     6  C    0.000000
     7  H    2.167516   0.000000
     8  H    2.199729   1.765687   0.000000
     9  H    3.490452   4.203294   4.983753   0.000000
    10  H    2.172975   3.859711   4.342106   2.517885   0.000000
    11  H    2.159831   2.720199   3.861473   2.369597   1.756755
    12  H    1.093287   3.057125   2.461035   3.894152   2.481543
    13  H    1.096725   2.439309   2.576593   4.289068   2.511224
    14  H    3.443566   2.822592   3.884153   2.360450   3.848949
    15  O    3.624353   2.931930   2.531651   4.498745   5.147013
    16  C    3.289403   4.629531   4.623516   2.106933   2.758269
    17  H    4.263928   5.312644   5.356138   2.361155   3.733697
    18  H    3.681257   5.313285   5.345056   2.439172   2.539996
    19  C    3.866802   5.548257   4.762964   4.393950   3.976401
    20  N    3.169992   4.577145   4.018901   3.390098   3.434906
    21  H    4.413072   6.277373   5.643259   4.567941   4.000246
    22  H    4.322993   5.898600   4.807699   5.364530   4.818606
    23  H    3.961047   3.889210   4.247454   2.591525   4.341096
                   11         12         13         14         15
    11  H    0.000000
    12  H    3.064679   0.000000
    13  H    2.452832   1.757796   0.000000
    14  H    2.706437   4.126384   4.248997   0.000000
    15  O    4.542532   3.790026   4.499534   2.927991   0.000000
    16  C    3.499755   3.054065   4.266023   3.468273   4.124129
    17  H    4.265910   4.072437   5.280042   3.630356   4.339605
    18  H    3.727722   3.379563   4.488773   4.296724   5.169277
    19  C    5.096140   2.985262   4.692243   5.319507   4.702386
    20  N    4.205236   2.551880   4.163332   4.076573   3.637541
    21  H    5.384581   3.568195   5.134317   5.916212   5.692392
    22  H    5.861928   3.328652   5.073340   5.998602   4.849551
    23  H    3.856349   4.208140   4.993514   1.765621   2.525164
                   16         17         18         19         20
    16  C    0.000000
    17  H    1.098902   0.000000
    18  H    1.104361   1.774316   0.000000
    19  C    2.346094   2.899485   2.501395   0.000000
    20  N    1.456835   2.058037   2.133149   1.268332   0.000000
    21  H    2.600172   3.123469   2.272612   1.101504   2.088903
    22  H    3.350293   3.841146   3.588124   1.090836   2.037587
    23  H    2.707084   2.478538   3.741575   4.367072   3.119491
                   21         22         23
    21  H    0.000000
    22  H    1.871676   0.000000
    23  H    5.037204   5.002805   0.000000
 Stoichiometry    C8H13NO
 Framework group  C1[X(C8H13NO)]
 Deg. of freedom    63
 Full point group                 C1      NOp   1
 Largest Abelian subgroup         C1      NOp   1
 Largest concise Abelian subgroup C1      NOp   1
                         Standard orientation:                         
 ---------------------------------------------------------------------
 Center     Atomic      Atomic             Coordinates (Angstroms)
 Number     Number       Type             X           Y           Z
 ---------------------------------------------------------------------
      1          6           0        1.725765    0.223773   -1.025384
      2          6           0        1.467952   -0.757851    0.109526
      3          6           0        0.838543   -0.172348    1.367591
      4          6           0       -0.318907    0.825185    1.121983
      5          6           0        0.060132    1.845749    0.026749
      6          6           0        0.563184    1.202214   -1.275755
      7          1           0        2.621677    0.794707   -0.732920
      8          1           0        1.986347   -0.345690   -1.921826
      9          1           0       -0.468871    1.388400    2.053427
     10          1           0       -0.799191    2.495688   -0.183657
     11          1           0        0.847997    2.500011    0.427029
     12          1           0       -0.252397    0.664589   -1.766738
     13          1           0        0.889523    1.985277   -1.970826
     14          1           0        1.650760    0.363917    1.882184
     15          8           0        1.837921   -1.917870    0.056930
     16          6           0       -1.660634    0.102965    0.884442
     17          1           0       -1.876911   -0.487931    1.785359
     18          1           0       -2.473030    0.842940    0.774606
     19          6           0       -2.643863   -0.937012   -0.974554
     20          7           0       -1.624152   -0.838401   -0.226803
     21          1           0       -3.553266   -0.329060   -0.845354
     22          1           0       -2.637136   -1.657528   -1.793537
     23          1           0        0.537163   -0.999603    2.016845
 ---------------------------------------------------------------------
 Rotational constants (GHZ):           1.6832778           1.1187458           0.9974179
 Standard basis: 6-31+G(d,p) (6D, 7F)
 There are   255 symmetry adapted cartesian basis functions of A   symmetry.
 There are   255 symmetry adapted basis functions of A   symmetry.
   255 basis functions,   411 primitive gaussians,   255 cartesian basis functions
    38 alpha electrons       38 beta electrons
       nuclear repulsion energy       548.1604612777 Hartrees.
 NAtoms=   23 NActive=   23 NUniq=   23 SFac= 1.00D+00 NAtFMM=   60 NAOKFM=F Big=F
 Integral buffers will be    131072 words long.
 Raffenetti 2 integral format.
 Two-electron integral symmetry is turned on.
 One-electron integrals computed using PRISM.
 NBasis=   255 RedAO= T EigKep=  2.64D-05  NBF=   255
 NBsUse=   255 1.00D-06 EigRej= -1.00D+00 NBFU=   255
 ExpMin= 4.38D-02 ExpMax= 5.48D+03 ExpMxC= 8.25D+02 IAcc=3 IRadAn=         5 AccDes= 0.00D+00
 Harris functional with IExCor=  402 and IRadAn=       5 diagonalized for initial guess.
 HarFok:  IExCor=  402 AccDes= 0.00D+00 IRadAn=         5 IDoV= 1 UseB2=F ITyADJ=14
 ICtDFT=  3500011 ScaDFX=  1.000000  1.000000  1.000000  1.000000
 FoFCou: FMM=F IPFlag=           0 FMFlag=      100000 FMFlg1=           0
         NFxFlg=           0 DoJE=T BraDBF=F KetDBF=T FulRan=T
         wScrn=  0.000000 ICntrl=       500 IOpCl=  0 I1Cent=   200000004 NGrid=           0
         NMat0=    1 NMatS0=      1 NMatT0=    0 NMatD0=    1 NMtDS0=    0 NMtDT0=    0
 Petite list used in FoFCou.
 Requested convergence on RMS density matrix=1.00D-08 within 128 cycles.
 Requested convergence on MAX density matrix=1.00D-06.
 Requested convergence on             energy=1.00D-06.
 No special actions if energy rises.
 SCF Done:  E(RB3LYP) =  -442.663696948     A.U. after   13 cycles
            NFock= 13  Conv=0.72D-08     -V/T= 2.0097

 **********************************************************************

            Population analysis using the SCF density.

 **********************************************************************

 Orbital symmetries:
       Occupied  (A) (A) (A) (A) (A) (A) (A) (A) (A) (A) (A) (A)
                 (A) (A) (A) (A) (A) (A) (A) (A) (A) (A) (A) (A)
                 (A) (A) (A) (A) (A) (A) (A) (A) (A) (A) (A) (A)
                 (A) (A)
       Virtual   (A) (A) (A) (A) (A) (A) (A) (A) (A) (A) (A) (A)
                 (A) (A) (A) (A) (A) (A) (A) (A) (A) (A) (A) (A)
                 (A) (A) (A) (A) (A) (A) (A) (A) (A) (A) (A) (A)
                 (A) (A) (A) (A) (A) (A) (A) (A) (A) (A) (A) (A)
                 (A) (A) (A) (A) (A) (A) (A) (A) (A) (A) (A) (A)
                 (A) (A) (A) (A) (A) (A) (A) (A) (A) (A) (A) (A)
                 (A) (A) (A) (A) (A) (A) (A) (A) (A) (A) (A) (A)
                 (A) (A) (A) (A) (A) (A) (A) (A) (A) (A) (A) (A)
                 (A) (A) (A) (A) (A) (A) (A) (A) (A) (A) (A) (A)
                 (A) (A) (A) (A) (A) (A) (A) (A) (A) (A) (A) (A)
                 (A) (A) (A) (A) (A) (A) (A) (A) (A) (A) (A) (A)
                 (A) (A) (A) (A) (A) (A) (A) (A) (A) (A) (A) (A)
                 (A) (A) (A) (A) (A) (A) (A) (A) (A) (A) (A) (A)
                 (A) (A) (A) (A) (A) (A) (A) (A) (A) (A) (A) (A)
                 (A) (A) (A) (A) (A) (A) (A) (A) (A) (A) (A) (A)
                 (A) (A) (A) (A) (A) (A) (A) (A) (A) (A) (A) (A)
                 (A) (A) (A) (A) (A) (A) (A) (A) (A) (A) (A) (A)
                 (A) (A) (A) (A) (A) (A) (A) (A) (A) (A) (A) (A)
                 (A)
 The electronic state is 1-A.
 Alpha  occ. eigenvalues --  -19.13513 -14.35216 -10.27093 -10.23965 -10.22548
 Alpha  occ. eigenvalues --  -10.20920 -10.19590 -10.19387 -10.19235 -10.19115
 Alpha  occ. eigenvalues --   -1.03219  -0.93644  -0.83727  -0.77368  -0.73192
 Alpha  occ. eigenvalues --   -0.70653  -0.63171  -0.60338  -0.57111  -0.52652
 Alpha  occ. eigenvalues --   -0.49326  -0.48489  -0.47210  -0.45816  -0.44716
 Alpha  occ. eigenvalues --   -0.43752  -0.42268  -0.40831  -0.39751  -0.38650
 Alpha  occ. eigenvalues --   -0.36081  -0.35313  -0.34409  -0.33139  -0.32420
 Alpha  occ. eigenvalues --   -0.30367  -0.26751  -0.23741
 Alpha virt. eigenvalues --   -0.03852  -0.01867  -0.00138   0.01356   0.01845
 Alpha virt. eigenvalues --    0.02361   0.03379   0.04185   0.04603   0.05178
 Alpha virt. eigenvalues --    0.05336   0.06838   0.07324   0.07954   0.08582
 Alpha virt. eigenvalues --    0.08929   0.09806   0.10114   0.10681   0.11723
 Alpha virt. eigenvalues --    0.12474   0.12994   0.13428   0.13651   0.14504
 Alpha virt. eigenvalues --    0.15384   0.15563   0.17261   0.17551   0.17908
 Alpha virt. eigenvalues --    0.18352   0.18835   0.19218   0.19834   0.20585
 Alpha virt. eigenvalues --    0.21582   0.21814   0.22077   0.22919   0.23738
 Alpha virt. eigenvalues --    0.24297   0.24865   0.25596   0.26208   0.27214
 Alpha virt. eigenvalues --    0.27452   0.28090   0.29305   0.29609   0.30818
 Alpha virt. eigenvalues --    0.32351   0.33184   0.33426   0.34341   0.34961
 Alpha virt. eigenvalues --    0.36539   0.37063   0.38388   0.38904   0.39997
 Alpha virt. eigenvalues --    0.40684   0.41245   0.43700   0.46806   0.50994
 Alpha virt. eigenvalues --    0.61290   0.62413   0.63383   0.64100   0.65467
 Alpha virt. eigenvalues --    0.67439   0.69630   0.69657   0.71709   0.72991
 Alpha virt. eigenvalues --    0.73076   0.75651   0.77222   0.78625   0.80245
 Alpha virt. eigenvalues --    0.82039   0.82291   0.82624   0.84563   0.88516
 Alpha virt. eigenvalues --    0.89110   0.92646   0.93064   0.96416   0.97239
 Alpha virt. eigenvalues --    0.97542   0.99384   1.00061   1.01047   1.05018
 Alpha virt. eigenvalues --    1.05724   1.07373   1.08985   1.09337   1.10081
 Alpha virt. eigenvalues --    1.12047   1.12918   1.13324   1.17699   1.18586
 Alpha virt. eigenvalues --    1.20956   1.23029   1.30154   1.31541   1.32052
 Alpha virt. eigenvalues --    1.34408   1.36138   1.36653   1.38561   1.41350
 Alpha virt. eigenvalues --    1.43512   1.45832   1.47742   1.50063   1.51018
 Alpha virt. eigenvalues --    1.56080   1.60250   1.64731   1.66847   1.70353
 Alpha virt. eigenvalues --    1.70954   1.73971   1.76665   1.78482   1.80928
 Alpha virt. eigenvalues --    1.81982   1.84819   1.85007   1.87244   1.88680
 Alpha virt. eigenvalues --    1.89482   1.91275   1.94758   1.96041   1.98737
 Alpha virt. eigenvalues --    2.00343   2.02966   2.03205   2.03907   2.07329
 Alpha virt. eigenvalues --    2.09164   2.11883   2.12193   2.15243   2.16864
 Alpha virt. eigenvalues --    2.19222   2.20202   2.21742   2.25380   2.27358
 Alpha virt. eigenvalues --    2.29000   2.31488   2.32152   2.33680   2.34655
 Alpha virt. eigenvalues --    2.39212   2.40557   2.43026   2.44166   2.47219
 Alpha virt. eigenvalues --    2.48678   2.49514   2.51844   2.53577   2.55118
 Alpha virt. eigenvalues --    2.57382   2.58970   2.61610   2.64076   2.64469
 Alpha virt. eigenvalues --    2.68167   2.68816   2.70329   2.73177   2.76122
 Alpha virt. eigenvalues --    2.78222   2.80325   2.81774   2.84950   2.86886
 Alpha virt. eigenvalues --    2.87722   2.90070   2.91200   2.92773   2.94905
 Alpha virt. eigenvalues --    2.95364   2.98488   3.07548   3.22525   3.28890
 Alpha virt. eigenvalues --    3.31168   3.34368   3.35455   3.35881   3.38054
 Alpha virt. eigenvalues --    3.46311   3.49472   3.50884   3.51779   3.52714
 Alpha virt. eigenvalues --    3.57421   3.58038   4.19207   4.31182   4.33742
 Alpha virt. eigenvalues --    4.42563   4.48235   4.52024   4.68216   4.75763
 Alpha virt. eigenvalues --    4.77138   4.83217
          Condensed to atoms (all electrons):
               1          2          3          4          5          6
     1  C    6.560884  -0.367406  -0.511361   0.041057  -0.050345   0.071133
     2  C   -0.367406   6.154072  -0.627262   0.141598  -0.208077  -0.032916
     3  C   -0.511361  -0.627262   6.975268  -0.373295   0.248248   0.117298
     4  C    0.041057   0.141598  -0.373295   6.823704  -0.481831  -0.113459
     5  C   -0.050345  -0.208077   0.248248  -0.481831   6.004654   0.109715
     6  C    0.071133  -0.032916   0.117298  -0.113459   0.109715   5.473266
     7  H    0.374020  -0.000289   0.009153  -0.020816   0.025453  -0.071629
     8  H    0.374769  -0.042135   0.028303  -0.005099   0.019399  -0.042659
     9  H   -0.008035  -0.007055   0.022801   0.232813   0.018402   0.021262
    10  H    0.025631  -0.018356   0.022625  -0.059477   0.386713  -0.034470
    11  H   -0.022321   0.025572  -0.040191  -0.033166   0.423480  -0.046066
    12  H   -0.083693   0.055568  -0.024397  -0.007754  -0.034630   0.406651
    13  H   -0.036224   0.015172  -0.012395   0.043676  -0.061628   0.375321
    14  H    0.009842   0.021123   0.338177  -0.033166  -0.004963  -0.018299
    15  O   -0.153885   0.634415  -0.163070  -0.002414   0.000513   0.003444
    16  C    0.050336   0.049530  -0.091069   0.195533  -0.070077  -0.029794
    17  H    0.005888  -0.005758  -0.006108  -0.071254   0.026368  -0.011022
    18  H    0.000909  -0.002939   0.013739  -0.072964  -0.049939   0.012034
    19  C    0.021823  -0.043791   0.002563  -0.028947   0.060851  -0.051839
    20  N    0.015183   0.015124   0.085909  -0.429170   0.110308  -0.031123
    21  H   -0.000570   0.002909  -0.003299  -0.001278  -0.005697   0.001074
    22  H   -0.001095  -0.000106  -0.000229  -0.001419   0.001257   0.001593
    23  H    0.019347  -0.013711   0.372253  -0.035483   0.008014  -0.002172
               7          8          9         10         11         12
     1  C    0.374020   0.374769  -0.008035   0.025631  -0.022321  -0.083693
     2  C   -0.000289  -0.042135  -0.007055  -0.018356   0.025572   0.055568
     3  C    0.009153   0.028303   0.022801   0.022625  -0.040191  -0.024397
     4  C   -0.020816  -0.005099   0.232813  -0.059477  -0.033166  -0.007754
     5  C    0.025453   0.019399   0.018402   0.386713   0.423480  -0.034630
     6  C   -0.071629  -0.042659   0.021262  -0.034470  -0.046066   0.406651
     7  H    0.554473  -0.023768  -0.000015  -0.000024   0.002307   0.004767
     8  H   -0.023768   0.532526   0.000010  -0.000124  -0.000005  -0.004663
     9  H   -0.000015   0.000010   0.622898  -0.002136  -0.007140  -0.000080
    10  H   -0.000024  -0.000124  -0.002136   0.585023  -0.031196  -0.004383
    11  H    0.002307  -0.000005  -0.007140  -0.031196   0.577199   0.004903
    12  H    0.004767  -0.004663  -0.000080  -0.004383   0.004903   0.551862
    13  H   -0.007087  -0.001157  -0.000172  -0.002240  -0.005778  -0.031862
    14  H   -0.000007   0.000019  -0.008325  -0.000021   0.001658   0.000031
    15  O   -0.005348  -0.001985  -0.000455   0.000165  -0.000692  -0.001302
    16  C   -0.002648   0.000573  -0.026030  -0.002233   0.011317   0.002946
    17  H   -0.000000  -0.000000  -0.005153   0.000079  -0.000161  -0.000033
    18  H    0.000000  -0.000002  -0.001109   0.003527   0.000108   0.000109
    19  C    0.000750  -0.000524   0.000034   0.000187   0.000843   0.005665
    20  N    0.001116   0.001448   0.020246  -0.001952  -0.001673   0.002418
    21  H   -0.000000  -0.000000   0.000004  -0.000015  -0.000000   0.000001
    22  H   -0.000000   0.000001   0.000004   0.000003  -0.000000  -0.000098
    23  H    0.000017  -0.000126  -0.001064  -0.000127  -0.000012  -0.000004
              13         14         15         16         17         18
     1  C   -0.036224   0.009842  -0.153885   0.050336   0.005888   0.000909
     2  C    0.015172   0.021123   0.634415   0.049530  -0.005758  -0.002939
     3  C   -0.012395   0.338177  -0.163070  -0.091069  -0.006108   0.013739
     4  C    0.043676  -0.033166  -0.002414   0.195533  -0.071254  -0.072964
     5  C   -0.061628  -0.004963   0.000513  -0.070077   0.026368  -0.049939
     6  C    0.375321  -0.018299   0.003444  -0.029794  -0.011022   0.012034
     7  H   -0.007087  -0.000007  -0.005348  -0.002648  -0.000000   0.000000
     8  H   -0.001157   0.000019  -0.001985   0.000573  -0.000000  -0.000002
     9  H   -0.000172  -0.008325  -0.000455  -0.026030  -0.005153  -0.001109
    10  H   -0.002240  -0.000021   0.000165  -0.002233   0.000079   0.003527
    11  H   -0.005778   0.001658  -0.000692   0.011317  -0.000161   0.000108
    12  H   -0.031862   0.000031  -0.001302   0.002946  -0.000033   0.000109
    13  H    0.590379  -0.000014  -0.000499   0.002299   0.000005   0.000013
    14  H   -0.000014   0.550227  -0.006169   0.011043   0.000121  -0.000133
    15  O   -0.000499  -0.006169   8.141847  -0.006460   0.000355  -0.000030
    16  C    0.002299   0.011043  -0.006460   5.345128   0.415085   0.447870
    17  H    0.000005   0.000121   0.000355   0.415085   0.574251  -0.036325
    18  H    0.000013  -0.000133  -0.000030   0.447870  -0.036325   0.622577
    19  C   -0.000439   0.000147   0.001113  -0.117626  -0.003780  -0.009378
    20  N   -0.001704   0.000108  -0.009757   0.323617  -0.040574  -0.056420
    21  H    0.000004   0.000000  -0.000054  -0.023885  -0.000054   0.013332
    22  H   -0.000004  -0.000000   0.000102  -0.004705  -0.000271  -0.000413
    23  H    0.000009  -0.024251  -0.004337  -0.012388   0.003156   0.000059
              19         20         21         22         23
     1  C    0.021823   0.015183  -0.000570  -0.001095   0.019347
     2  C   -0.043791   0.015124   0.002909  -0.000106  -0.013711
     3  C    0.002563   0.085909  -0.003299  -0.000229   0.372253
     4  C   -0.028947  -0.429170  -0.001278  -0.001419  -0.035483
     5  C    0.060851   0.110308  -0.005697   0.001257   0.008014
     6  C   -0.051839  -0.031123   0.001074   0.001593  -0.002172
     7  H    0.000750   0.001116  -0.000000  -0.000000   0.000017
     8  H   -0.000524   0.001448  -0.000000   0.000001  -0.000126
     9  H    0.000034   0.020246   0.000004   0.000004  -0.001064
    10  H    0.000187  -0.001952  -0.000015   0.000003  -0.000127
    11  H    0.000843  -0.001673  -0.000000  -0.000000  -0.000012
    12  H    0.005665   0.002418   0.000001  -0.000098  -0.000004
    13  H   -0.000439  -0.001704   0.000004  -0.000004   0.000009
    14  H    0.000147   0.000108   0.000000  -0.000000  -0.024251
    15  O    0.001113  -0.009757  -0.000054   0.000102  -0.004337
    16  C   -0.117626   0.323617  -0.023885  -0.004705  -0.012388
    17  H   -0.003780  -0.040574  -0.000054  -0.000271   0.003156
    18  H   -0.009378  -0.056420   0.013332  -0.000413   0.000059
    19  C    5.019224   0.409109   0.399143   0.422894  -0.001467
    20  N    0.409109   6.853729  -0.058380  -0.078128  -0.004168
    21  H    0.399143  -0.058380   0.625848  -0.057099  -0.000004
    22  H    0.422894  -0.078128  -0.057099   0.580899   0.000002
    23  H   -0.001467  -0.004168  -0.000004   0.000002   0.532459
 Mulliken charges:
               1
     1  C   -0.335885
     2  C    0.254716
     3  C   -0.383661
     4  C    0.292611
     5  C   -0.476189
     6  C   -0.107344
     7  H    0.159574
     8  H    0.165199
     9  H    0.128294
    10  H    0.132800
    11  H    0.141014
    12  H    0.157977
    13  H    0.134326
    14  H    0.162853
    15  O   -0.425497
    16  C   -0.468362
    17  H    0.155190
    18  H    0.115375
    19  C   -0.086556
    20  N   -0.125265
    21  H    0.108018
    22  H    0.136814
    23  H    0.163997
 Sum of Mulliken charges =  -0.00000
 Mulliken charges with hydrogens summed into heavy atoms:
               1
     1  C   -0.011112
     2  C    0.254716
     3  C   -0.056812
     4  C    0.420905
     5  C   -0.202374
     6  C    0.184959
    15  O   -0.425497
    16  C   -0.197797
    19  C    0.158276
    20  N   -0.125265
 Electronic spatial extent (au):  <R**2>=           1442.5798
 Charge=             -0.0000 electrons
 Dipole moment (field-independent basis, Debye):
    X=             -2.5887    Y=              3.8209    Z=              0.2132  Tot=              4.6202
 Quadrupole moment (field-independent basis, Debye-Ang):
   XX=            -59.0169   YY=            -69.9621   ZZ=            -58.2217
   XY=              7.2709   XZ=              1.3150   YZ=              0.9512
 Traceless Quadrupole moment (field-independent basis, Debye-Ang):
   XX=              3.3833   YY=             -7.5618   ZZ=              4.1785
   XY=              7.2709   XZ=              1.3150   YZ=              0.9512
 Octapole moment (field-independent basis, Debye-Ang**2):
  XXX=            -17.2666  YYY=             11.3698  ZZZ=              0.1436  XYY=            -13.2284
  XXY=              8.5272  XXZ=             -5.7742  XZZ=             -1.4678  YZZ=             -5.4088
  YYZ=             -1.9519  XYZ=             -2.4855
 Hexadecapole moment (field-independent basis, Debye-Ang**3):
 XXXX=           -936.7384 YYYY=           -590.9442 ZZZZ=           -434.9846 XXXY=             30.4952
 XXXZ=             22.8305 YYYX=             24.8203 YYYZ=              3.6887 ZZZX=              2.2311
 ZZZY=              5.2651 XXYY=           -277.6148 XXZZ=           -223.0712 YYZZ=           -159.7540
 XXYZ=              9.3848 YYXZ=              4.5013 ZZXY=              6.8633
 N-N= 5.481604612777D+02 E-N=-2.124011692542D+03  KE= 4.383923830810D+02
 Calling FoFJK, ICntrl=      2127 FMM=F ISym2X=0 I1Cent= 0 IOpClX= 0 NMat=1 NMatS=1 NMatT=0.
 ***** Axes restored to original set *****
 -------------------------------------------------------------------
 Center     Atomic                   Forces (Hartrees/Bohr)
 Number     Number              X              Y              Z
 -------------------------------------------------------------------
      1        6           0.000080809    0.000111346    0.000101206
      2        6           0.000104322    0.000040374    0.000049891
      3        6           0.000002199   -0.000010515    0.000006007
      4        6           0.000006119   -0.000013920   -0.000076730
      5        6           0.000015482   -0.000072132   -0.000068813
      6        6           0.000075987   -0.000043830    0.000002338
      7        1          -0.000019716    0.000005826    0.000008621
      8        1           0.000007909    0.000015135    0.000025373
      9        1          -0.000000424   -0.000002057   -0.000003934
     10        1           0.000016404   -0.000007838   -0.000019206
     11        1          -0.000004989    0.000001862   -0.000018389
     12        1           0.000008767    0.000005526   -0.000011775
     13        1           0.000002231   -0.000005198   -0.000005110
     14        1          -0.000000313   -0.000010583    0.000006951
     15        8           0.000108028    0.000080176    0.000050452
     16        6          -0.000003564   -0.000054961    0.000002586
     17        1           0.000009186   -0.000001475   -0.000003726
     18        1           0.000000913   -0.000015348    0.000015309
     19        6          -0.000226464   -0.000015887    0.000017829
     20        7          -0.000148444   -0.000003695   -0.000093335
     21        1          -0.000007386   -0.000007812    0.000014056
     22        1          -0.000029735    0.000006889    0.000003007
     23        1           0.000002680   -0.000001882   -0.000002605
 -------------------------------------------------------------------
 Cartesian Forces:  Max     0.000226464 RMS     0.000050997

 GradGradGradGradGradGradGradGradGradGradGradGradGradGradGradGradGradGrad
 Berny optimization.
 FormGI is forming the generalized inverse of G from B-inverse, IUseBI=4.
 Internal  Forces:  Max     0.001042116 RMS     0.000173689
 Search for a local minimum.
 Step number   1 out of a maximum of  138
 All quantities printed in internal units (Hartrees-Bohrs-Radians)
 Mixed Optimization -- En-DIIS/RFO-DIIS
 Second derivative matrix not updated -- first step.
 ITU=  0
     Eigenvalues ---    0.00230   0.00400   0.00459   0.00471   0.00658
     Eigenvalues ---    0.00940   0.01325   0.02141   0.02475   0.03433
     Eigenvalues ---    0.03594   0.03821   0.04100   0.04498   0.04551
     Eigenvalues ---    0.04728   0.04822   0.05330   0.05657   0.05780
     Eigenvalues ---    0.05895   0.07512   0.08175   0.08496   0.09348
     Eigenvalues ---    0.09594   0.09831   0.09966   0.11552   0.12440
     Eigenvalues ---    0.14004   0.14914   0.15696   0.16000   0.16000
     Eigenvalues ---    0.18230   0.21986   0.22065   0.24821   0.25000
     Eigenvalues ---    0.26937   0.27383   0.27992   0.28260   0.28328
     Eigenvalues ---    0.29617   0.29719   0.33204   0.33474   0.33516
     Eigenvalues ---    0.33578   0.33732   0.33804   0.33819   0.33928
     Eigenvalues ---    0.34047   0.34361   0.34408   0.34435   0.34716
     Eigenvalues ---    0.37363   0.76815   0.95951
 RFO step:  Lambda=-1.14698366D-04 EMin= 2.30000000D-03
 Linear search not attempted -- first point.
 Iteration  1 RMS(Cart)=  0.03832138 RMS(Int)=  0.00041652
 Iteration  2 RMS(Cart)=  0.00060048 RMS(Int)=  0.00001219
 Iteration  3 RMS(Cart)=  0.00000022 RMS(Int)=  0.00001219
 Variable       Old X    -DE/DX   Delta X   Delta X   Delta X     New X
                                 (Linear)    (Quad)   (Total)
    R1        2.87715  -0.00004   0.00000  -0.00071  -0.00070   2.87645
    R2        2.91020   0.00007   0.00000  -0.00080  -0.00079   2.90941
    R3        2.08227   0.00000   0.00000   0.00000   0.00000   2.08227
    R4        2.06646  -0.00002   0.00000  -0.00005  -0.00005   2.06641
    R5        2.87940   0.00001   0.00000   0.00032   0.00032   2.87971
    R6        2.30306   0.00001   0.00000   0.00001   0.00001   2.30307
    R7        2.92455   0.00018   0.00000   0.00171   0.00170   2.92626
    R8        2.08049  -0.00000   0.00000  -0.00000  -0.00000   2.08048
    R9        2.06725   0.00000   0.00000   0.00000   0.00000   2.06726
   R10        2.91824   0.00005   0.00000   0.00075   0.00074   2.91899
   R11        2.07637  -0.00000   0.00000  -0.00001  -0.00001   2.07636
   R12        2.91426   0.00030   0.00000   0.00107   0.00107   2.91533
   R13        2.90534   0.00007   0.00000   0.00000   0.00001   2.90534
   R14        2.07451  -0.00001   0.00000  -0.00003  -0.00003   2.07448
   R15        2.07785  -0.00001   0.00000  -0.00004  -0.00004   2.07782
   R16        2.06601   0.00000   0.00000   0.00001   0.00001   2.06602
   R17        2.07251  -0.00000   0.00000  -0.00001  -0.00001   2.07250
   R18        2.07662  -0.00000   0.00000  -0.00001  -0.00001   2.07662
   R19        2.08694  -0.00001   0.00000  -0.00003  -0.00003   2.08691
   R20        2.75302  -0.00013   0.00000  -0.00035  -0.00035   2.75266
   R21        2.39680   0.00012   0.00000   0.00016   0.00016   2.39696
   R22        2.08154   0.00001   0.00000   0.00002   0.00002   2.08156
   R23        2.06138  -0.00002   0.00000  -0.00005  -0.00005   2.06133
    A1        1.98557   0.00007   0.00000  -0.00210  -0.00213   1.98344
    A2        1.84824  -0.00001   0.00000   0.00090   0.00091   1.84915
    A3        1.89196  -0.00003   0.00000   0.00004   0.00005   1.89201
    A4        1.90472  -0.00007   0.00000   0.00056   0.00056   1.90528
    A5        1.95787   0.00003   0.00000   0.00038   0.00039   1.95826
    A6        1.86885   0.00001   0.00000   0.00038   0.00038   1.86923
    A7        2.02379  -0.00011   0.00000  -0.00023  -0.00028   2.02351
    A8        2.12952  -0.00001   0.00000  -0.00047  -0.00047   2.12905
    A9        2.12561   0.00011   0.00000  -0.00006  -0.00006   2.12555
   A10        2.01041   0.00027   0.00000   0.00502   0.00497   2.01538
   A11        1.84247  -0.00017   0.00000  -0.00266  -0.00265   1.83982
   A12        1.88940  -0.00001   0.00000   0.00041   0.00042   1.88982
   A13        1.88806  -0.00008   0.00000  -0.00252  -0.00251   1.88556
   A14        1.95581  -0.00006   0.00000   0.00021   0.00022   1.95603
   A15        1.86940   0.00003   0.00000  -0.00106  -0.00107   1.86833
   A16        1.93367  -0.00031   0.00000   0.00321   0.00314   1.93681
   A17        1.87333  -0.00008   0.00000  -0.00472  -0.00470   1.86863
   A18        1.95334   0.00055   0.00000   0.00588   0.00588   1.95922
   A19        1.87126   0.00017   0.00000  -0.00253  -0.00251   1.86875
   A20        1.99742  -0.00005   0.00000   0.00197   0.00195   1.99937
   A21        1.82542  -0.00031   0.00000  -0.00534  -0.00534   1.82008
   A22        1.98727   0.00020   0.00000   0.00256   0.00252   1.98979
   A23        1.91247  -0.00015   0.00000  -0.00010  -0.00008   1.91239
   A24        1.88696   0.00005   0.00000  -0.00085  -0.00085   1.88611
   A25        1.91938   0.00009   0.00000   0.00018   0.00019   1.91957
   A26        1.89972  -0.00023   0.00000  -0.00158  -0.00157   1.89815
   A27        1.85290   0.00003   0.00000  -0.00045  -0.00045   1.85245
   A28        1.95543  -0.00013   0.00000  -0.00107  -0.00110   1.95433
   A29        1.90048   0.00013   0.00000   0.00062   0.00062   1.90110
   A30        1.90927  -0.00005   0.00000  -0.00022  -0.00021   1.90906
   A31        1.92006   0.00006   0.00000   0.00101   0.00102   1.92108
   A32        1.91285   0.00003   0.00000  -0.00039  -0.00039   1.91246
   A33        1.86342  -0.00003   0.00000   0.00012   0.00011   1.86353
   A34        1.87211  -0.00023   0.00000  -0.00031  -0.00031   1.87180
   A35        1.91935  -0.00028   0.00000  -0.00187  -0.00186   1.91749
   A36        1.98048   0.00104   0.00000   0.00503   0.00503   1.98551
   A37        1.87240   0.00009   0.00000  -0.00087  -0.00087   1.87153
   A38        1.85754  -0.00018   0.00000   0.00093   0.00093   1.85846
   A39        1.95576  -0.00047   0.00000  -0.00301  -0.00301   1.95275
   A40        2.15520  -0.00003   0.00000  -0.00019  -0.00019   2.15500
   A41        2.08177   0.00004   0.00000   0.00026   0.00026   2.08203
   A42        2.04622  -0.00001   0.00000  -0.00006  -0.00006   2.04615
   A43        2.07123  -0.00062   0.00000  -0.00248  -0.00248   2.06875
    D1       -0.75709   0.00004   0.00000  -0.00648  -0.00647  -0.76356
    D2        2.48204   0.00008   0.00000   0.00231   0.00232   2.48436
    D3        1.33472  -0.00001   0.00000  -0.00640  -0.00640   1.32831
    D4       -1.70934   0.00004   0.00000   0.00239   0.00239  -1.70695
    D5       -2.94804  -0.00002   0.00000  -0.00550  -0.00549  -2.95353
    D6        0.29109   0.00003   0.00000   0.00330   0.00330   0.29439
    D7        0.83680   0.00005   0.00000   0.01184   0.01184   0.84864
    D8       -1.29107  -0.00003   0.00000   0.01084   0.01084  -1.28022
    D9        2.96163  -0.00004   0.00000   0.01048   0.01048   2.97211
   D10       -1.22274   0.00006   0.00000   0.01164   0.01164  -1.21110
   D11        2.93257  -0.00001   0.00000   0.01064   0.01064   2.94321
   D12        0.90208  -0.00002   0.00000   0.01027   0.01028   0.91236
   D13        2.99232   0.00008   0.00000   0.01057   0.01056   3.00288
   D14        0.86445   0.00000   0.00000   0.00957   0.00957   0.87401
   D15       -1.16604  -0.00001   0.00000   0.00920   0.00920  -1.15684
   D16        0.75333  -0.00005   0.00000  -0.00910  -0.00911   0.74421
   D17       -1.32828   0.00002   0.00000  -0.00703  -0.00702  -1.33531
   D18        2.95786   0.00007   0.00000  -0.00469  -0.00470   2.95316
   D19       -2.48557  -0.00010   0.00000  -0.01790  -0.01791  -2.50347
   D20        1.71601  -0.00004   0.00000  -0.01582  -0.01582   1.70019
   D21       -0.28103   0.00002   0.00000  -0.01349  -0.01349  -0.29453
   D22       -0.80873   0.00012   0.00000   0.01977   0.01977  -0.78896
   D23       -2.84646   0.00012   0.00000   0.02381   0.02383  -2.82263
   D24        1.44347   0.00025   0.00000   0.02988   0.02990   1.47337
   D25        1.24745   0.00001   0.00000   0.01773   0.01772   1.26517
   D26       -0.79028   0.00002   0.00000   0.02177   0.02177  -0.76851
   D27       -2.78354   0.00014   0.00000   0.02784   0.02785  -2.75569
   D28       -2.97886  -0.00004   0.00000   0.01496   0.01495  -2.96391
   D29        1.26660  -0.00003   0.00000   0.01900   0.01900   1.28560
   D30       -0.72666   0.00009   0.00000   0.02507   0.02508  -0.70158
   D31        0.91160  -0.00002   0.00000  -0.01521  -0.01521   0.89639
   D32        3.06921   0.00012   0.00000  -0.01320  -0.01319   3.05602
   D33       -1.20178   0.00011   0.00000  -0.01425  -0.01424  -1.21601
   D34        2.95060  -0.00019   0.00000  -0.02060  -0.02060   2.92999
   D35       -1.17497  -0.00004   0.00000  -0.01859  -0.01859  -1.19356
   D36        0.83722  -0.00006   0.00000  -0.01964  -0.01964   0.81759
   D37       -1.31674  -0.00047   0.00000  -0.02773  -0.02774  -1.34448
   D38        0.84087  -0.00033   0.00000  -0.02572  -0.02572   0.81515
   D39        2.85307  -0.00035   0.00000  -0.02677  -0.02677   2.82630
   D40        1.05068   0.00003   0.00000  -0.04613  -0.04612   1.00456
   D41        3.08143  -0.00015   0.00000  -0.04832  -0.04831   3.03312
   D42       -0.99568  -0.00020   0.00000  -0.04996  -0.04996  -1.04564
   D43       -3.01422   0.00004   0.00000  -0.03486  -0.03487  -3.04909
   D44       -0.98348  -0.00014   0.00000  -0.03704  -0.03705  -1.02053
   D45        1.22260  -0.00019   0.00000  -0.03869  -0.03870   1.18389
   D46       -0.97190   0.00003   0.00000  -0.04034  -0.04034  -1.01224
   D47        1.05884  -0.00014   0.00000  -0.04252  -0.04252   1.01632
   D48       -3.01827  -0.00020   0.00000  -0.04417  -0.04417  -3.06244
   D49       -0.93749  -0.00016   0.00000  -0.00127  -0.00126  -0.93875
   D50        1.17913  -0.00005   0.00000  -0.00050  -0.00050   1.17864
   D51       -3.06026  -0.00003   0.00000  -0.00000   0.00001  -3.06025
   D52       -3.09136  -0.00017   0.00000  -0.00315  -0.00314  -3.09449
   D53       -0.97473  -0.00006   0.00000  -0.00238  -0.00237  -0.97711
   D54        1.06906  -0.00004   0.00000  -0.00188  -0.00187   1.06719
   D55        1.16875  -0.00013   0.00000  -0.00181  -0.00181   1.16695
   D56       -2.99781  -0.00002   0.00000  -0.00104  -0.00105  -2.99885
   D57       -0.95402   0.00000   0.00000  -0.00054  -0.00054  -0.95456
   D58       -2.48125  -0.00001   0.00000  -0.00404  -0.00403  -2.48528
   D59        1.74709  -0.00020   0.00000  -0.00709  -0.00709   1.74000
   D60       -0.29453   0.00006   0.00000  -0.00499  -0.00499  -0.29952
   D61        0.02721  -0.00002   0.00000  -0.00061  -0.00061   0.02659
   D62       -3.11371  -0.00001   0.00000  -0.00009  -0.00009  -3.11380
   D63       -3.14093   0.00001   0.00000   0.00052   0.00052  -3.14041
         Item               Value     Threshold  Converged?
 Maximum Force            0.001042     0.000450     NO 
 RMS     Force            0.000174     0.000300     YES
 Maximum Displacement     0.179118     0.001800     NO 
 RMS     Displacement     0.038357     0.001200     NO 
 Predicted change in Energy=-5.910048D-05
 GradGradGradGradGradGradGradGradGradGradGradGradGradGradGradGradGradGrad

                          Input orientation:                          
 ---------------------------------------------------------------------
 Center     Atomic      Atomic             Coordinates (Angstroms)
 Number     Number       Type             X           Y           Z
 ---------------------------------------------------------------------
      1          6           0        1.613973    1.168452   -0.397849
      2          6           0        1.576193   -0.103692    0.437121
      3          6           0        0.493356   -0.166545    1.507505
      4          6           0       -0.901299    0.348999    1.075038
      5          6           0       -0.783280    1.682869    0.305076
      6          6           0        0.224438    1.648090   -0.855536
      7          1           0        2.069060    1.939096    0.244930
      8          1           0        2.293900    1.009063   -1.239296
      9          1           0       -1.467687    0.555797    1.993578
     10          1           0       -1.772245    1.982255   -0.065609
     11          1           0       -0.475297    2.461716    1.017479
     12          1           0       -0.136797    0.985171   -1.646315
     13          1           0        0.311739    2.648461   -1.296484
     14          1           0        0.854426    0.473893    2.326985
     15          8           0        2.428814   -0.968506    0.334961
     16          6           0       -1.727758   -0.736246    0.354477
     17          1           0       -1.814651   -1.589420    1.041588
     18          1           0       -2.749987   -0.364486    0.163628
     19          6           0       -1.836648   -1.517565   -1.853089
     20          7           0       -1.099597   -1.244129   -0.857666
     21          1           0       -2.928048   -1.368802   -1.859978
     22          1           0       -1.382398   -1.923301   -2.758018
     23          1           0        0.451933   -1.189089    1.894031
 ---------------------------------------------------------------------
                    Distance matrix (angstroms):
                    1          2          3          4          5
     1  C    0.000000
     2  C    1.522153   0.000000
     3  C    2.582319   1.523879   0.000000
     4  C    3.027787   2.598044   1.548508   0.000000
     5  C    2.550598   2.962490   2.548719   1.544661   0.000000
     6  C    1.539591   2.562605   2.991519   2.584964   1.537441
     7  H    1.101890   2.110175   2.917304   3.469946   2.864457
     8  H    1.093499   2.136282   3.488399   4.000141   3.508295
     9  H    3.948531   3.481765   2.145632   1.098761   2.142368
    10  H    3.498447   3.976926   3.496423   2.174200   1.097766
    11  H    2.835619   3.335677   2.843619   2.156006   1.099533
    12  H    2.158114   2.908721   3.416156   2.897402   2.170864
    13  H    2.166515   3.489781   3.977386   3.518963   2.167125
    14  H    2.912737   2.103838   1.100944   2.159986   2.869114
    15  O    2.401576   1.218730   2.400832   3.656937   4.165121
    16  C    3.919315   3.364973   2.566589   1.542724   2.597421
    17  H    4.629611   3.751079   2.751100   2.143082   3.509138
    18  H    4.659324   4.342654   3.516314   2.181141   2.842465
    19  C    4.608601   4.346445   4.306712   3.596230   4.001255
    20  N    3.659978   3.183853   3.048396   2.512513   3.165334
    21  H    5.404205   5.212039   4.948876   3.958898   4.312793
    22  H    4.909946   4.719444   4.979893   4.481866   4.769271
    23  H    3.487269   2.136501   1.093944   2.206287   3.506946
                    6          7          8          9         10
     6  C    0.000000
     7  H    2.167566   0.000000
     8  H    2.199614   1.765911   0.000000
     9  H    3.489103   4.180893   4.980608   0.000000
    10  H    2.173106   3.854078   4.342600   2.523447   0.000000
    11  H    2.158657   2.709930   3.856383   2.360112   1.756427
    12  H    1.093290   3.058199   2.464654   3.899288   2.483445
    13  H    1.096721   2.442812   2.572908   4.286036   2.510353
    14  H    3.450227   2.820835   3.882892   2.347355   3.859930
    15  O    3.622587   2.931157   2.531258   4.500803   5.149402
    16  C    3.310628   4.645996   4.664756   2.103250   2.751126
    17  H    4.270648   5.307382   5.369798   2.372472   3.739591
    18  H    3.733143   5.341939   5.412543   2.416595   2.552591
    19  C    3.906989   5.621810   4.880781   4.385408   3.930391
    20  N    3.180881   4.624827   4.091251   3.391874   3.389596
    21  H    4.477578   6.351686   5.771328   4.548255   3.973062
    22  H    4.353871   5.987351   4.941704   5.360118   4.759665
    23  H    3.957456   3.888467   4.247641   2.596050   4.341034
                   11         12         13         14         15
    11  H    0.000000
    12  H    3.064403   0.000000
    13  H    2.451270   1.757868   0.000000
    14  H    2.726611   4.126867   4.260608   0.000000
    15  O    4.546000   3.784794   4.497340   2.920166   0.000000
    16  C    3.497883   3.081818   4.282693   3.467404   4.163101
    17  H    4.266867   4.082711   5.286563   3.610191   4.346475
    18  H    3.727021   3.453437   4.536953   4.286582   5.216720
    19  C    5.091965   3.032481   4.720292   5.355446   4.825266
    20  N    4.199905   2.553180   4.163735   4.112396   3.734703
    21  H    5.382250   3.657584   5.191546   5.935763   5.802927
    22  H    5.857096   3.353597   5.089910   6.050386   5.000349
    23  H    3.867360   4.196196   4.992578   1.764924   2.527333
                   16         17         18         19         20
    16  C    0.000000
    17  H    1.098898   0.000000
    18  H    1.104347   1.773733   0.000000
    19  C    2.344284   2.895652   2.496182   0.000000
    20  N    1.456648   2.058566   2.130868   1.268416   0.000000
    21  H    2.597044   3.115671   2.266129   1.101513   2.088877
    22  H    3.349030   3.838662   3.582767   1.090808   2.037791
    23  H    2.706722   2.454451   3.731830   4.403000   3.159448
                   21         22         23
    21  H    0.000000
    22  H    1.871624   0.000000
    23  H    5.054617   5.054246   0.000000
 Stoichiometry    C8H13NO
 Framework group  C1[X(C8H13NO)]
 Deg. of freedom    63
 Full point group                 C1      NOp   1
 Largest Abelian subgroup         C1      NOp   1
 Largest concise Abelian subgroup C1      NOp   1
                         Standard orientation:                         
 ---------------------------------------------------------------------
 Center     Atomic      Atomic             Coordinates (Angstroms)
 Number     Number       Type             X           Y           Z
 ---------------------------------------------------------------------
      1          6           0        1.750577    0.297518   -1.006126
      2          6           0        1.504006   -0.747200    0.073094
      3          6           0        0.846734   -0.242257    1.351856
      4          6           0       -0.324923    0.750170    1.151395
      5          6           0        0.034355    1.824891    0.101694
      6          6           0        0.562806    1.252588   -1.223800
      7          1           0        2.625048    0.878271   -0.671181
      8          1           0        2.040156   -0.218027   -1.925961
      9          1           0       -0.474024    1.270397    2.107642
     10          1           0       -0.839756    2.461727   -0.086614
     11          1           0        0.802936    2.481115    0.534853
     12          1           0       -0.233987    0.714611   -1.744362
     13          1           0        0.872068    2.074011   -1.881386
     14          1           0        1.643789    0.278573    1.904592
     15          8           0        1.910361   -1.891447   -0.031208
     16          6           0       -1.664760    0.028758    0.897625
     17          1           0       -1.846339   -0.632714    1.756148
     18          1           0       -2.487996    0.764412    0.871588
     19          6           0       -2.706412   -0.874824   -0.998205
     20          7           0       -1.658757   -0.821439   -0.285148
     21          1           0       -3.616769   -0.292495   -0.784962
     22          1           0       -2.724575   -1.527552   -1.871977
     23          1           0        0.553559   -1.108544    1.952114
 ---------------------------------------------------------------------
 Rotational constants (GHZ):           1.7094402           1.0872870           0.9787230
 Standard basis: 6-31+G(d,p) (6D, 7F)
 There are   255 symmetry adapted cartesian basis functions of A   symmetry.
 There are   255 symmetry adapted basis functions of A   symmetry.
   255 basis functions,   411 primitive gaussians,   255 cartesian basis functions
    38 alpha electrons       38 beta electrons
       nuclear repulsion energy       546.6882857462 Hartrees.
 NAtoms=   23 NActive=   23 NUniq=   23 SFac= 1.00D+00 NAtFMM=   60 NAOKFM=F Big=F
 Integral buffers will be    131072 words long.
 Raffenetti 2 integral format.
 Two-electron integral symmetry is turned on.
 One-electron integrals computed using PRISM.
 NBasis=   255 RedAO= T EigKep=  2.75D-05  NBF=   255
 NBsUse=   255 1.00D-06 EigRej= -1.00D+00 NBFU=   255
 Initial guess from the checkpoint file:  "/scratch/Grace/g03/Gau-1439.chk"
 B after Tr=    -0.000000   -0.000000   -0.000000
         Rot=    0.999668   -0.025383   -0.001671   -0.003983 Ang=  -2.95 deg.
 ExpMin= 4.38D-02 ExpMax= 5.48D+03 ExpMxC= 8.25D+02 IAcc=2 IRadAn=         4 AccDes= 0.00D+00
 Harris functional with IExCor=  402 and IRadAn=       4 diagonalized for initial guess.
 HarFok:  IExCor=  402 AccDes= 0.00D+00 IRadAn=         4 IDoV= 1 UseB2=F ITyADJ=14
 ICtDFT=  3500011 ScaDFX=  1.000000  1.000000  1.000000  1.000000
 FoFCou: FMM=F IPFlag=           0 FMFlag=      100000 FMFlg1=           0
         NFxFlg=           0 DoJE=T BraDBF=F KetDBF=T FulRan=T
         wScrn=  0.000000 ICntrl=       500 IOpCl=  0 I1Cent=   200000004 NGrid=           0
         NMat0=    1 NMatS0=      1 NMatT0=    0 NMatD0=    1 NMtDS0=    0 NMtDT0=    0
 Petite list used in FoFCou.
 Requested convergence on RMS density matrix=1.00D-08 within 128 cycles.
 Requested convergence on MAX density matrix=1.00D-06.
 Requested convergence on             energy=1.00D-06.
 No special actions if energy rises.
 SCF Done:  E(RB3LYP) =  -442.663730708     A.U. after   11 cycles
            NFock= 11  Conv=0.90D-08     -V/T= 2.0098
 Calling FoFJK, ICntrl=      2127 FMM=F ISym2X=0 I1Cent= 0 IOpClX= 0 NMat=1 NMatS=1 NMatT=0.
 ***** Axes restored to original set *****
 -------------------------------------------------------------------
 Center     Atomic                   Forces (Hartrees/Bohr)
 Number     Number              X              Y              Z
 -------------------------------------------------------------------
      1        6          -0.000153915   -0.000107071   -0.000240843
      2        6           0.000509818    0.001028350    0.000852393
      3        6          -0.000286708   -0.000005720   -0.000688586
      4        6          -0.000328391   -0.000339596    0.000238661
      5        6           0.000075304   -0.000048126   -0.000045033
      6        6          -0.000046820   -0.000028236   -0.000062044
      7        1          -0.000016678   -0.000056971    0.000037720
      8        1           0.000022608    0.000026485   -0.000002052
      9        1          -0.000110286   -0.000063433    0.000042681
     10        1          -0.000009958   -0.000055084    0.000002464
     11        1           0.000000582    0.000030654   -0.000018878
     12        1          -0.000043108   -0.000238720    0.000045949
     13        1          -0.000015923    0.000033819    0.000012692
     14        1           0.000209242   -0.000053118   -0.000048925
     15        8          -0.000324762   -0.000528602   -0.000285008
     16        6           0.000193034    0.000134956    0.000027636
     17        1          -0.000009959    0.000022727    0.000057796
     18        1           0.000039766    0.000150435    0.000062814
     19        6          -0.000032303    0.000118279   -0.000071734
     20        7           0.000396532   -0.000051899    0.000051555
     21        1           0.000025618    0.000068647   -0.000005282
     22        1          -0.000045354   -0.000032597    0.000000784
     23        1          -0.000048338   -0.000005180    0.000035239
 -------------------------------------------------------------------
 Cartesian Forces:  Max     0.001028350 RMS     0.000237133

 GradGradGradGradGradGradGradGradGradGradGradGradGradGradGradGradGradGrad
 Berny optimization.
 Using GEDIIS/GDIIS optimizer.
 FormGI is forming the generalized inverse of G from B-inverse, IUseBI=4.
 Internal  Forces:  Max     0.000651233 RMS     0.000141213
 Search for a local minimum.
 Step number   2 out of a maximum of  138
 All quantities printed in internal units (Hartrees-Bohrs-Radians)
 Mixed Optimization -- En-DIIS/RFO-DIIS
 Swapping is turned off.
 Update second derivatives using D2CorX and points    1    2
 DE= -3.38D-05 DEPred=-5.91D-05 R= 5.71D-01
 TightC=F SS=  1.41D+00  RLast= 1.65D-01 DXNew= 5.0454D-01 4.9618D-01
 Trust test= 5.71D-01 RLast= 1.65D-01 DXMaxT set to 4.96D-01
 ITU=  1  0
     Eigenvalues ---    0.00206   0.00346   0.00461   0.00634   0.00694
     Eigenvalues ---    0.01032   0.01326   0.02132   0.02692   0.03433
     Eigenvalues ---    0.03739   0.03896   0.04093   0.04447   0.04572
     Eigenvalues ---    0.04735   0.04823   0.05336   0.05653   0.05798
     Eigenvalues ---    0.05893   0.07508   0.08166   0.08520   0.09445
     Eigenvalues ---    0.09586   0.09847   0.10010   0.11625   0.12438
     Eigenvalues ---    0.14098   0.14806   0.15685   0.16000   0.16002
     Eigenvalues ---    0.18200   0.21968   0.22676   0.24794   0.24937
     Eigenvalues ---    0.27000   0.27402   0.27988   0.28257   0.28916
     Eigenvalues ---    0.29699   0.29818   0.33204   0.33475   0.33517
     Eigenvalues ---    0.33578   0.33732   0.33804   0.33825   0.33928
     Eigenvalues ---    0.34047   0.34361   0.34408   0.34450   0.34716
     Eigenvalues ---    0.37397   0.76804   0.95967
 En-DIIS/RFO-DIIS/Sim-DIIS IScMMF=       -3 using points:     2    1
 RFO step:  Lambda=-5.57792623D-05.
 DidBck=F Rises=F RFO-DIIS coefs:    1.05002   -0.05002
 Iteration  1 RMS(Cart)=  0.00858349 RMS(Int)=  0.00005346
 Iteration  2 RMS(Cart)=  0.00005416 RMS(Int)=  0.00003408
 Iteration  3 RMS(Cart)=  0.00000000 RMS(Int)=  0.00003408
 Variable       Old X    -DE/DX   Delta X   Delta X   Delta X     New X
                                 (Linear)    (Quad)   (Total)
    R1        2.87645  -0.00012  -0.00003  -0.00006  -0.00007   2.87638
    R2        2.90941   0.00000  -0.00004  -0.00029  -0.00033   2.90908
    R3        2.08227  -0.00002   0.00000  -0.00005  -0.00005   2.08222
    R4        2.06641   0.00001  -0.00000   0.00001   0.00001   2.06642
    R5        2.87971  -0.00026   0.00002  -0.00008  -0.00004   2.87967
    R6        2.30307   0.00017   0.00000   0.00013   0.00013   2.30319
    R7        2.92626  -0.00027   0.00009  -0.00010  -0.00002   2.92624
    R8        2.08048   0.00000  -0.00000   0.00000   0.00000   2.08048
    R9        2.06726   0.00002   0.00000   0.00004   0.00004   2.06730
   R10        2.91899  -0.00012   0.00004  -0.00053  -0.00051   2.91847
   R11        2.07636   0.00008  -0.00000   0.00016   0.00016   2.07652
   R12        2.91533  -0.00065   0.00005  -0.00126  -0.00121   2.91412
   R13        2.90534  -0.00003   0.00000  -0.00048  -0.00050   2.90484
   R14        2.07448  -0.00001  -0.00000  -0.00002  -0.00003   2.07445
   R15        2.07782   0.00001  -0.00000   0.00001   0.00001   2.07782
   R16        2.06602   0.00013   0.00000   0.00025   0.00025   2.06627
   R17        2.07250   0.00002  -0.00000   0.00005   0.00005   2.07255
   R18        2.07662   0.00002  -0.00000   0.00003   0.00003   2.07665
   R19        2.08691   0.00000  -0.00000   0.00000   0.00000   2.08691
   R20        2.75266   0.00013  -0.00002   0.00014   0.00013   2.75279
   R21        2.39696   0.00006   0.00001   0.00010   0.00011   2.39706
   R22        2.08156  -0.00002   0.00000  -0.00003  -0.00003   2.08153
   R23        2.06133  -0.00001  -0.00000  -0.00003  -0.00003   2.06130
    A1        1.98344  -0.00020  -0.00011  -0.00031  -0.00038   1.98307
    A2        1.84915   0.00003   0.00005  -0.00010  -0.00006   1.84909
    A3        1.89201   0.00007   0.00000  -0.00003  -0.00005   1.89196
    A4        1.90528   0.00012   0.00003   0.00068   0.00070   1.90599
    A5        1.95826   0.00002   0.00002  -0.00031  -0.00030   1.95796
    A6        1.86923  -0.00003   0.00002   0.00011   0.00013   1.86936
    A7        2.02351   0.00018  -0.00001   0.00255   0.00242   2.02593
    A8        2.12905   0.00017  -0.00002   0.00110   0.00083   2.12988
    A9        2.12555  -0.00031  -0.00000  -0.00009  -0.00034   2.12520
   A10        2.01538   0.00001   0.00025   0.00251   0.00278   2.01816
   A11        1.83982  -0.00011  -0.00013  -0.00156  -0.00169   1.83813
   A12        1.88982   0.00001   0.00002  -0.00030  -0.00030   1.88952
   A13        1.88556   0.00019  -0.00013   0.00090   0.00076   1.88632
   A14        1.95603  -0.00008   0.00001  -0.00118  -0.00117   1.95486
   A15        1.86833  -0.00002  -0.00005  -0.00058  -0.00063   1.86770
   A16        1.93681   0.00012   0.00016  -0.00015  -0.00002   1.93679
   A17        1.86863   0.00004  -0.00023   0.00104   0.00081   1.86944
   A18        1.95922  -0.00002   0.00029   0.00020   0.00049   1.95971
   A19        1.86875   0.00007  -0.00013   0.00149   0.00136   1.87011
   A20        1.99937  -0.00031   0.00010  -0.00249  -0.00237   1.99700
   A21        1.82008   0.00013  -0.00027   0.00030   0.00003   1.82011
   A22        1.98979  -0.00015   0.00013  -0.00144  -0.00133   1.98846
   A23        1.91239  -0.00002  -0.00000  -0.00064  -0.00063   1.91176
   A24        1.88611   0.00011  -0.00004   0.00131   0.00127   1.88738
   A25        1.91957   0.00004   0.00001  -0.00028  -0.00026   1.91931
   A26        1.89815   0.00005  -0.00008   0.00083   0.00075   1.89890
   A27        1.85245  -0.00002  -0.00002   0.00039   0.00037   1.85282
   A28        1.95433   0.00011  -0.00005  -0.00061  -0.00068   1.95365
   A29        1.90110  -0.00006   0.00003  -0.00041  -0.00038   1.90072
   A30        1.90906  -0.00002  -0.00001   0.00040   0.00040   1.90945
   A31        1.92108  -0.00006   0.00005  -0.00056  -0.00049   1.92059
   A32        1.91246  -0.00005  -0.00002   0.00036   0.00034   1.91280
   A33        1.86353   0.00008   0.00001   0.00089   0.00090   1.86443
   A34        1.87180   0.00019  -0.00002   0.00093   0.00091   1.87270
   A35        1.91749  -0.00015  -0.00009  -0.00192  -0.00202   1.91547
   A36        1.98551  -0.00045   0.00025  -0.00010   0.00015   1.98566
   A37        1.87153   0.00001  -0.00004   0.00033   0.00028   1.87182
   A38        1.85846   0.00014   0.00005   0.00122   0.00127   1.85973
   A39        1.95275   0.00029  -0.00015  -0.00024  -0.00039   1.95236
   A40        2.15500  -0.00006  -0.00001  -0.00029  -0.00030   2.15470
   A41        2.08203   0.00007   0.00001   0.00038   0.00039   2.08241
   A42        2.04615  -0.00002  -0.00000  -0.00008  -0.00009   2.04607
   A43        2.06875  -0.00023  -0.00012  -0.00135  -0.00147   2.06728
    D1       -0.76356   0.00010  -0.00032   0.00796   0.00764  -0.75592
    D2        2.48436  -0.00026   0.00012  -0.02926  -0.02917   2.45519
    D3        1.32831   0.00015  -0.00032   0.00856   0.00825   1.33657
    D4       -1.70695  -0.00021   0.00012  -0.02867  -0.02856  -1.73551
    D5       -2.95353   0.00016  -0.00027   0.00861   0.00835  -2.94518
    D6        0.29439  -0.00020   0.00017  -0.02861  -0.02846   0.26592
    D7        0.84864   0.00002   0.00059   0.00159   0.00220   0.85084
    D8       -1.28022   0.00007   0.00054   0.00297   0.00353  -1.27669
    D9        2.97211   0.00002   0.00052   0.00191   0.00245   2.97456
   D10       -1.21110   0.00003   0.00058   0.00145   0.00203  -1.20907
   D11        2.94321   0.00008   0.00053   0.00283   0.00336   2.94658
   D12        0.91236   0.00003   0.00051   0.00177   0.00228   0.91464
   D13        3.00288  -0.00003   0.00053   0.00106   0.00160   3.00448
   D14        0.87401   0.00002   0.00048   0.00245   0.00293   0.87694
   D15       -1.15684  -0.00003   0.00046   0.00139   0.00185  -1.15499
   D16        0.74421  -0.00012  -0.00046  -0.01178  -0.01224   0.73197
   D17       -1.33531  -0.00028  -0.00035  -0.01327  -0.01363  -1.34893
   D18        2.95316  -0.00021  -0.00023  -0.01171  -0.01194   2.94122
   D19       -2.50347   0.00027  -0.00090   0.02544   0.02454  -2.47894
   D20        1.70019   0.00011  -0.00079   0.02396   0.02315   1.72335
   D21       -0.29453   0.00018  -0.00067   0.02552   0.02484  -0.26969
   D22       -0.78896   0.00011   0.00099   0.00673   0.00770  -0.78126
   D23       -2.82263  -0.00007   0.00119   0.00443   0.00561  -2.81703
   D24        1.47337  -0.00024   0.00150   0.00337   0.00485   1.47822
   D25        1.26517   0.00010   0.00089   0.00693   0.00781   1.27297
   D26       -0.76851  -0.00007   0.00109   0.00463   0.00572  -0.76279
   D27       -2.75569  -0.00024   0.00139   0.00357   0.00496  -2.75073
   D28       -2.96391   0.00015   0.00075   0.00610   0.00683  -2.95707
   D29        1.28560  -0.00002   0.00095   0.00380   0.00475   1.29035
   D30       -0.70158  -0.00019   0.00125   0.00274   0.00399  -0.69759
   D31        0.89639  -0.00005  -0.00076   0.00247   0.00170   0.89809
   D32        3.05602  -0.00013  -0.00066   0.00056  -0.00010   3.05592
   D33       -1.21601  -0.00010  -0.00071   0.00141   0.00070  -1.21531
   D34        2.92999   0.00010  -0.00103   0.00449   0.00345   2.93344
   D35       -1.19356   0.00002  -0.00093   0.00259   0.00165  -1.19191
   D36        0.81759   0.00005  -0.00098   0.00344   0.00245   0.82004
   D37       -1.34448   0.00014  -0.00139   0.00445   0.00305  -1.34143
   D38        0.81515   0.00006  -0.00129   0.00254   0.00125   0.81640
   D39        2.82630   0.00009  -0.00134   0.00339   0.00205   2.82835
   D40        1.00456   0.00011  -0.00231  -0.00064  -0.00294   1.00162
   D41        3.03312   0.00015  -0.00242  -0.00075  -0.00316   3.02996
   D42       -1.04564   0.00008  -0.00250  -0.00270  -0.00519  -1.05083
   D43       -3.04909  -0.00001  -0.00174  -0.00285  -0.00459  -3.05368
   D44       -1.02053   0.00003  -0.00185  -0.00295  -0.00481  -1.02534
   D45        1.18389  -0.00005  -0.00194  -0.00491  -0.00685   1.17705
   D46       -1.01224  -0.00000  -0.00202  -0.00213  -0.00415  -1.01639
   D47        1.01632   0.00004  -0.00213  -0.00224  -0.00437   1.01196
   D48       -3.06244  -0.00004  -0.00221  -0.00419  -0.00640  -3.06884
   D49       -0.93875  -0.00006  -0.00006  -0.00730  -0.00735  -0.94609
   D50        1.17864  -0.00011  -0.00002  -0.00862  -0.00863   1.17001
   D51       -3.06025  -0.00008   0.00000  -0.00765  -0.00763  -3.06788
   D52       -3.09449   0.00005  -0.00016  -0.00518  -0.00534  -3.09983
   D53       -0.97711  -0.00000  -0.00012  -0.00650  -0.00662  -0.98373
   D54        1.06719   0.00003  -0.00009  -0.00553  -0.00562   1.06156
   D55        1.16695   0.00002  -0.00009  -0.00597  -0.00606   1.16088
   D56       -2.99885  -0.00003  -0.00005  -0.00729  -0.00735  -3.00620
   D57       -0.95456  -0.00000  -0.00003  -0.00632  -0.00635  -0.96091
   D58       -2.48528   0.00029  -0.00020   0.01181   0.01161  -2.47367
[...]
 -0.13192959,-0.10733103,0.00475252,0.00533480,0.00886582,0.00001603,0.
 00049813,0.00020142,-0.00016799,0.00010659,0.00001035,-0.00013979,-0.0
 0001022,0.00074017,0.00016287,0.00016863,-0.00013548,-0.00059407,0.000
 85084,0.00026585,-0.00006716,0.00020257,-0.00025170,0.00005300,-0.0001
 1700,-0.00007835,0.00009262,0.00000038,-0.00002297,0.00000734,0.000016
 94,0.00000732,0.05073759,0.14117664,0.00128691,0.00167690,0.00170389,-
 0.00860607,-0.01789370,-0.01950101,-0.06174503,-0.11071765,-0.18778969
 ,-0.00309432,-0.00533405,-0.00612473,0.00013613,-0.00061674,-0.0003020
 2,-0.00010125,-0.00013257,0.00015234,0.00042767,0.00116792,-0.00062908
 ,0.00028961,0.00000861,0.00046680,0.00044506,0.00030506,0.00144374,0.0
 0005208,0.00020297,0.00022426,-0.00005489,0.00059031,0.00002587,0.0000
 1128,-0.00007463,0.00014445,0.00005665,-0.00002698,-0.00002937,0.06479
 034,0.12144600,0.19988300,0.00772529,0.02365089,0.00006375,-0.39066622
 ,0.32122965,0.05464042,-0.02921090,0.03568669,0.02003063,-0.00000259,-
 0.00051804,0.00624879,0.00015260,-0.00087567,0.00026154,0.00096650,-0.
 00087553,0.00061825,-0.00044485,0.00219565,-0.00205793,0.00050059,-0.0
 0038931,-0.00213608,-0.00278725,0.00069966,-0.00069011,-0.00015378,0.0
 0036109,-0.00036172,0.00013173,-0.00007177,0.00000200,-0.00033554,-0.0
 0014126,-0.00009978,-0.00027171,0.00013740,-0.00040242,-0.00417526,0.0
 0076632,0.00340805,0.41816201,0.04151922,-0.03988758,0.00728719,0.3207
 1995,-0.41890983,-0.02895109,0.02289701,0.00246878,-0.00875155,-0.0016
 9658,0.00201804,-0.00302889,-0.00080489,0.00047002,0.00067785,-0.00684
 483,-0.00721976,0.00299407,0.00015699,-0.00068419,0.00038653,0.0004973
 1,0.00268004,-0.00114884,0.00128384,-0.00011424,0.00023972,0.00054283,
 -0.00002722,-0.00038206,-0.00009029,0.00008369,-0.00016529,0.00082369,
 -0.00000099,0.00054210,0.00369726,-0.00123015,0.00147857,-0.00157125,0
 .00129354,0.00197248,-0.38174863,0.45638018,-0.01068747,0.01873868,0.0
 1754874,0.05519922,-0.02949576,-0.09288110,0.03407303,-0.02172480,0.01
 007364,0.00079584,0.00156495,-0.00780145,0.00018078,0.00082796,-0.0005
 9130,0.00004641,0.00253376,0.00005171,-0.00099320,0.00534879,-0.001717
 67,-0.00214498,-0.00332024,0.00299330,0.00256185,-0.00085280,0.0007077
 7,-0.00023964,-0.00040304,0.00051820,-0.00002339,-0.00005261,0.0000295
 5,0.00019664,-0.00030354,0.00004592,-0.00091657,0.00035659,-0.00028523
 ,-0.00080559,-0.00036284,0.00052077,-0.07473293,0.02919941,0.06780361,
 -0.00045177,-0.00025213,0.00023700,-0.00042495,-0.00143994,-0.00190556
 ,-0.02254202,-0.02019288,-0.01729698,-0.11154413,-0.03664628,-0.022278
 57,-0.00122306,-0.00494389,0.00032655,-0.00071601,0.00002916,-0.000897
 47,0.00006642,0.00007832,0.00005285,0.00004320,-0.00003210,0.00000331,
 0.00778006,0.01219152,0.00946092,0.00042084,0.00214683,-0.00043834,0.0
 0040524,0.00124536,-0.00041388,0.00003707,-0.00017693,0.00049878,0.000
 40843,0.00030720,-0.00004263,-0.00476657,0.00120830,-0.00068145,-0.000
 05536,0.00072241,0.00029249,0.53015767,0.00006107,0.00007726,0.0000790
 0,-0.00157143,0.00092377,0.00311485,0.00247609,0.00860972,0.00231044,-
 0.03627042,-0.12196784,-0.02743275,-0.01423609,-0.02593223,-0.01283148
 ,0.00029845,0.00083866,-0.00042106,0.00004218,-0.00004997,-0.00005412,
 0.00009563,0.00008458,-0.00009681,-0.00532906,-0.00669786,-0.00393757,
 -0.00080208,0.00108513,-0.00096046,-0.00102615,-0.00362319,0.00288768,
 -0.00022303,0.00038994,0.00046486,0.00030530,0.00016263,-0.00019355,0.
 00350906,-0.00035387,0.00144222,0.00132184,-0.00147464,-0.00134072,-0.
 03134088,0.51770378,0.00022057,-0.00020690,-0.00048497,0.00023604,0.00
 127377,0.00201598,-0.00831761,-0.00392040,-0.00695620,-0.01987453,-0.0
 2591162,-0.08987735,0.00906181,0.00953742,0.01132434,-0.00021650,0.000
 61316,0.00185361,-0.00022960,-0.00007133,-0.00005973,0.00024560,0.0000
 4540,-0.00007351,-0.01481922,-0.02035871,-0.01503287,0.00002420,-0.000
 02935,0.00054928,0.00048442,0.00467526,-0.00114325,0.00027313,0.000231
 38,-0.00105929,-0.00004443,-0.00045524,-0.00068752,-0.00149730,0.00061
 974,0.00040809,0.00050717,-0.00075615,-0.00101243,0.02977644,-0.056882
 42,0.49736095,0.00015248,0.00001335,-0.00011053,-0.00041439,0.00002931
 ,0.00040395,0.00082386,-0.00135896,0.00105712,-0.00375468,-0.01645944,
 0.00962123,-0.00138790,-0.00161314,-0.00266290,0.00024694,0.00026359,-
 0.00008543,0.00000188,-0.00000643,-0.00001707,-0.00000127,0.00004495,-
 0.00004194,0.00067850,0.00097804,0.00019670,0.00025673,-0.00017103,0.0
 0013056,0.00016891,-0.00092771,0.00046618,-0.00004162,0.00008136,-0.00
 000412,-0.00002324,0.00002001,0.00000189,0.00026631,0.00021177,-0.0000
 0449,0.00022325,0.00001118,-0.00015181,-0.05048620,-0.01012217,0.01204
 261,0.05143844,0.00011817,0.00007234,-0.00003430,-0.00018860,-0.000159
 85,0.00039539,0.00146932,0.00059223,0.00055622,-0.00303201,-0.02179673
 ,0.01424252,-0.00260003,-0.00180607,-0.00410174,0.00026454,-0.00014963
 ,-0.00036060,0.00003381,-0.00001614,-0.00001479,-0.00008428,0.00006879
 ,-0.00005142,0.00060797,0.00038051,-0.00010148,-0.00002462,0.00053950,
 -0.00020578,-0.00051312,-0.00144289,0.00065250,-0.00003299,0.00004549,
 0.00004338,-0.00011189,0.00002737,0.00015533,0.00032426,0.00025812,-0.
 00012662,0.00003100,0.00017362,-0.00007710,-0.01200257,-0.19965019,0.1
 2525848,0.01595239,0.21811085,0.00005407,0.00002197,0.00008083,0.00002
 425,-0.00001537,-0.00007237,0.00020840,-0.00049869,0.00057386,-0.00277
 118,-0.01232988,0.00835416,-0.00212666,-0.00161221,-0.00079665,0.00000
 639,-0.00037185,-0.00019917,0.00003755,-0.00000109,0.00001055,-0.00003
 661,-0.00000133,-0.00000148,0.00023025,0.00002871,0.00099046,0.0000592
 5,0.00009017,-0.00012097,-0.00010158,-0.00069726,0.00020332,-0.0000695
 4,-0.00002616,0.00009365,-0.00005263,0.00005083,0.00012779,0.00020180,
 -0.00012560,0.00007634,-0.00001763,-0.00001194,0.00002864,0.01156308,0
 .12485633,-0.13992315,-0.01433168,-0.13048673,0.16488507,0.00001960,-0
 .00007228,-0.00010176,0.00066581,0.00056480,-0.00063380,-0.00015446,-0
 .00325751,-0.00151977,-0.01599984,0.00694387,-0.00447114,0.00004015,0.
 00153833,0.00002594,0.00001008,-0.00005439,0.00032188,-0.00000022,-0.0
 0001982,0.00002966,0.00008132,-0.00003857,0.00006038,0.00053823,-0.000
 22162,-0.00050667,0.00055766,-0.00102219,0.00054454,0.00049776,0.00001
 445,0.00005581,-0.00012101,0.00011476,-0.00003996,0.00000221,-0.000078
 50,0.00001170,-0.00108511,0.00017937,-0.00016997,-0.00039392,-0.000118
 39,0.00017799,-0.24295902,0.07179267,-0.04590368,0.00272626,-0.0007584
 9,-0.00023224,0.27091444,-0.00001380,-0.00005228,0.00001604,0.00036981
 ,-0.00013154,-0.00114843,-0.00185879,-0.00333683,-0.00147083,-0.021361
 12,0.00658855,-0.00463238,-0.00078986,0.00172841,-0.00040219,-0.000097
 31,-0.00009378,-0.00001791,0.00000867,0.00002342,0.00001946,-0.0000127
 5,-0.00004532,0.00003022,0.00060768,0.00078800,0.00046291,0.00042916,-
 0.00017058,0.00016001,0.00022367,0.00022436,-0.00001981,-0.00000055,-0
 .00006086,0.00009360,-0.00000110,0.00002512,0.00006563,-0.00108931,0.0
 0034409,-0.00037669,-0.00027803,0.00033850,0.00049162,0.07343608,-0.07
 902981,0.01728808,0.02251191,-0.00716439,0.00510122,-0.08419575,0.0823
 4331,-0.00006894,-0.00004693,0.00010878,0.00056737,-0.00034629,-0.0015
 8386,-0.00178135,-0.00270226,-0.00031329,-0.01271969,0.00628964,-0.002
 55175,0.00059851,0.00057095,0.00012999,-0.00000017,0.00002981,-0.00004
 285,0.00001670,0.00003972,0.00001796,-0.00002676,-0.00006188,0.0000683
 2,0.00003404,0.00028077,-0.00009534,0.00019963,-0.00029228,0.00031251,
 0.00009248,-0.00001781,-0.00004973,0.00007699,-0.00005417,0.00004748,0
 .00000032,-0.00000468,0.00006601,-0.00099082,-0.00015693,-0.00015633,-
 0.00046232,0.00041279,0.00061414,-0.04688698,0.01821562,-0.06111108,-0
 .01795623,0.00568132,-0.00282003,0.04543907,-0.01249204,0.06811098,-0.
 00006473,0.00005692,-0.00000316,0.00059815,0.00030913,0.00018205,0.000
 00736,-0.00024699,-0.00066136,-0.00156386,0.00118770,0.00230637,0.0006
 4211,-0.00048419,-0.00003789,-0.00016881,0.00002234,-0.00005337,0.0000
 5765,0.00000007,0.00009661,-0.00006751,-0.00004812,-0.00000809,0.00070
 512,0.00070190,0.00066315,-0.00021050,0.00010437,-0.00008595,-0.000105
 84,0.00016395,0.00006478,-0.00040717,-0.00114462,0.00009426,0.00014546
 ,0.00023950,-0.00000607,0.00003311,-0.00003617,-0.00009675,-0.00014083
 ,-0.00002127,0.00000041,-0.00215722,0.00733137,0.01438250,-0.00040711,
 0.00010245,0.00420662,0.00211223,0.00170241,0.00818259,0.67738159,-0.0
 0010391,-0.00005585,-0.00001552,-0.00042466,-0.00044871,-0.00026825,0.
 00009288,0.00008591,-0.00000007,0.00074159,-0.00039607,-0.00248364,0.0
 0004570,0.00019286,0.00010480,-0.00016167,-0.00000797,0.00075440,-0.00
 001330,0.00005591,-0.00005512,0.00000781,-0.00001497,0.00000566,-0.000
 28685,-0.00036850,-0.00029402,0.00005298,-0.00002457,0.00005792,0.0001
 0622,0.00001818,0.00000169,-0.00090610,-0.00149648,-0.00045731,-0.0000
 9876,0.00001691,-0.00009656,-0.00006365,0.00003698,0.00006036,0.000179
 62,0.00015190,0.00009528,-0.00599031,-0.00155691,-0.01915827,-0.000451
 73,0.00020218,-0.00022253,-0.00230941,-0.00008788,-0.00032559,-0.03829
 643,0.22073144,-0.00029942,0.00011488,0.00023216,-0.00054255,-0.000723
 36,-0.00077757,0.00046234,-0.00003946,0.00005375,0.00504123,0.00143466
 ,-0.00216108,-0.00019171,-0.00035521,-0.00066562,0.00025648,0.00000253
 ,-0.00066843,0.00014671,0.00002928,0.00007098,-0.00000179,-0.00004033,
 -0.00000204,-0.00075873,-0.00120372,-0.00047323,-0.00001315,-0.0001405
 7,-0.00003523,-0.00010881,-0.00014273,0.00033421,-0.00014918,-0.000036
 82,0.00120694,0.00009515,0.00050033,0.00030755,-0.00027191,0.00013016,
 0.00005962,0.00038811,0.00023490,0.00039842,-0.02524129,-0.01359665,-0
 .05217861,0.00074856,-0.00259137,-0.00077569,-0.00435154,0.00163497,0.
 00385058,0.13417833,0.21668856,0.77855640,0.00026577,0.00001308,-0.000
 09515,-0.00071109,0.00122372,0.00057759,0.00082804,0.00008892,-0.00048
 305,0.01390062,-0.00200881,-0.01347332,-0.00030237,0.00061456,0.000181
 14,-0.00003597,-0.00112503,0.00112054,-0.00001832,-0.00006358,-0.00006
 099,0.00008458,0.00007475,0.00001302,-0.00184493,-0.00412521,-0.003400
 99,0.00013950,-0.00033443,0.00021456,-0.00005216,-0.00013151,0.0000641
 0,-0.00059485,-0.00098193,-0.00072092,-0.00024366,-0.00055934,-0.00025
 601,0.00004721,-0.00002398,-0.00006320,-0.00035965,-0.00104261,-0.0008
 4628,-0.10684653,0.01050565,0.02135870,-0.00036322,0.00146648,0.003610
 11,-0.01970039,0.01242193,0.02816231,-0.27793318,-0.04488054,-0.221998
 55,0.40952459,0.00063146,0.00007367,-0.00026933,0.00189990,-0.00073225
 ,0.00081474,0.00038375,0.00002684,0.00200533,0.01396489,-0.00730110,-0
 .02540466,0.00053817,0.00154616,0.00065433,-0.00068310,-0.00167607,0.0
 0238324,-0.00015554,-0.00004957,-0.00009053,-0.00001372,0.00005723,-0.
 00000275,-0.00284277,-0.00357851,-0.00311281,0.00024168,-0.00009160,0.
 00014394,0.00008214,0.00032124,0.00000636,-0.00139318,-0.00176916,-0.0
 0145815,-0.00033710,-0.00093563,-0.00068399,0.00034595,0.00015767,-0.0
 0001213,-0.00119589,0.00149941,0.00004139,0.02574910,-0.09653212,-0.03
 070020,-0.00996574,0.01184382,0.01723046,0.01037833,-0.00201820,-0.015
 99934,-0.06284069,-0.07884184,-0.10975597,0.03335924,0.16086946,-0.000
 00410,-0.00017971,0.00000263,0.00116406,0.00130848,-0.00126757,0.00017
 344,0.00020846,0.00143266,0.00242567,-0.01193008,-0.02438710,0.0004221
 1,0.00184247,0.00157569,-0.00058386,-0.00022548,0.00021000,0.00000155,
 0.00002715,0.00006543,-0.00012778,-0.00008836,0.00007294,-0.00133963,-
 0.00256353,-0.00033696,0.00025391,-0.00012189,0.00017063,0.00025957,0.
 00036759,-0.00011256,0.00031501,-0.00001942,0.00005335,-0.00006926,-0.
 00009813,0.00022082,0.00069607,-0.00028837,0.00011580,-0.00118683,-0.0
 0017998,0.00048069,0.07266011,-0.03738968,-0.14883064,0.01120747,-0.00
 887844,-0.03063202,0.00918407,-0.00433741,-0.00565559,-0.27360022,-0.1
 0254858,-0.44116793,0.21621164,0.17966823,0.68126774,0.00006040,0.0000
 0046,0.00003185,0.00022928,0.00065049,0.00009979,-0.00006657,0.0000805
 5,0.00023150,0.00044249,-0.00007560,-0.00009766,-0.00017810,0.00016724
 ,-0.00007650,-0.00002745,-0.00001503,-0.00001214,0.00000712,-0.0000404
 3,0.00000601,0.00003463,0.00001374,0.00001105,-0.00010424,-0.00015259,
 -0.00009610,0.00012704,-0.00007855,-0.00000887,0.00004129,-0.00004172,
 0.00001893,-0.00008780,0.00017805,-0.00000992,-0.00000015,-0.00007947,
 0.00000533,0.00010247,-0.00007067,-0.00003271,-0.00015876,-0.00029924,
 -0.00013058,0.00321664,-0.00033561,0.00601522,-0.00002901,-0.00004264,
 0.00015110,0.00160107,-0.00145163,-0.00227560,-0.28212460,0.04207952,0
 .00891809,-0.02841322,0.00388129,-0.01598306,0.31384696,-0.00013306,-0
 .00002834,0.00006604,-0.00015248,0.00023461,-0.00035218,-0.00010916,0.
 00001316,-0.00022541,0.00042489,0.00021119,-0.00073845,0.00013533,-0.0
 0008081,-0.00012544,-0.00006935,0.00006673,-0.00043092,0.00003936,0.00
 001196,0.00003393,-0.00001475,-0.00002531,0.00000907,-0.00016211,-0.00
 011814,-0.00006811,-0.00003152,-0.00002810,-0.00001378,-0.00003325,0.0
 0001121,0.00006719,0.00005605,-0.00001914,0.00030304,0.00008353,0.0001
 5163,0.00013007,-0.00007540,-0.00003917,-0.00000447,0.00008426,-0.0002
 2290,0.00008889,-0.00550006,-0.00861107,0.00424147,-0.00027919,0.00012
 956,0.00186021,0.00151498,-0.00073168,0.00085293,0.04242698,-0.0580856
 0,-0.00649052,-0.00282945,0.02744380,-0.00947136,-0.04596116,0.0345248
 5,0.00009831,0.00002811,-0.00005824,0.00028563,0.00014805,0.00031170,0
 .00013718,0.00000742,-0.00010194,0.00006374,-0.00028718,0.00021923,-0.
 00003424,0.00008558,0.00010079,-0.00001874,-0.00005640,0.00021795,-0.0
 0002028,-0.00001292,-0.00000110,-0.00000250,0.00000138,-0.00000130,0.0
 0007716,-0.00000837,-0.00003785,0.00001753,-0.00002779,0.00002018,0.00
 003366,0.00001551,-0.00002382,-0.00003965,-0.00003852,-0.00019509,-0.0
 0002817,-0.00008881,-0.00007595,0.00004464,-0.00002105,-0.00004527,-0.
 00009453,-0.00002267,-0.00011018,-0.00506856,0.00632902,0.00201604,0.0
 0008762,-0.00002289,-0.00070389,0.00122109,-0.00011819,0.00083131,0.01
 070597,-0.00696717,-0.06168880,-0.03352297,-0.00562758,-0.00004008,0.0
 0480807,0.01131041,0.05600960,0.00002709,-0.00000092,-0.00002427,0.000
 14202,-0.00011018,-0.00007244,0.00005508,0.00011031,0.00015050,0.00050
 785,-0.00033516,-0.00020796,-0.00012463,0.00005999,-0.00001925,0.00001
 366,-0.00003324,0.00004620,-0.00000918,0.00001077,0.00000412,-0.000021
 77,-0.00001913,0.00000563,-0.00014935,-0.00015478,-0.00006767,0.000019
 59,-0.00002930,0.00000587,0.00001360,-0.00002778,0.00001468,0.00004178
 ,0.00000851,-0.00002098,-0.00002299,-0.00000558,0.00000398,0.00002774,
 -0.00000515,0.00001340,-0.00006452,0.00011629,0.00009259,0.00016728,0.
 00211522,-0.00316849,0.00042081,-0.00030893,-0.00077462,0.00044270,-0.
 00051413,-0.00065222,-0.11635857,0.05065954,0.10368686,0.01273004,-0.0
 1171077,-0.02204477,-0.00852563,0.01057206,0.02123818,0.11066648,0.000
 07230,0.00004019,0.00002664,0.00019225,0.00008283,0.00008793,0.0000096
 1,-0.00007095,0.00002606,-0.00113970,-0.00001446,0.00131378,-0.0001200
 8,0.00007848,0.00008880,-0.00006403,-0.00031687,-0.00001179,0.00001130
 ,-0.00001073,0.00002648,-0.00002681,-0.00000368,-0.00000340,0.00024216
 ,0.00023654,0.00028686,0.00001970,0.00000301,-0.00002058,-0.00000287,-
 0.00002244,0.00000651,0.00005305,0.00015053,-0.00013970,-0.00005392,-0
 .00009262,-0.00002705,0.00002437,-0.00000231,-0.00002433,-0.00005497,-
 0.00001728,-0.00000344,0.00244563,0.01514561,-0.00463437,0.00082500,-0
 .00102331,-0.00296838,-0.00090643,0.00035315,0.00043966,0.04885465,-0.
 08012379,-0.08570580,-0.00163592,-0.01070356,-0.00512816,0.00160887,0.
 00524398,-0.00460113,-0.05039474,0.07108975,-0.00001043,0.00000991,0.0
 0003801,0.00030204,0.00000920,-0.00035552,-0.00010647,-0.00010413,0.00
 007307,0.00127226,0.00022907,-0.00134376,0.00003246,0.00013262,-0.0000
 8416,0.00000014,-0.00007394,-0.00012571,0.00001632,0.00000668,0.000010
 46,-0.00004410,-0.00001708,0.00001543,-0.00041564,-0.00045660,-0.00029
 637,-0.00000558,0.00000923,0.00001870,-0.00004635,-0.00007146,0.000046
 06,0.00002428,-0.00003598,0.00000317,-0.00001424,-0.00000077,0.0000505
 4,-0.00008359,-0.00001652,-0.00001485,-0.00022593,0.00011809,0.0001641
 4,-0.00392970,-0.00555496,0.00260831,-0.00020601,0.00043622,0.00052349
 ,0.00068579,-0.00020614,-0.00000408,0.09939444,-0.08480916,-0.22431243
 ,0.00327769,-0.00942430,-0.03352492,-0.00169779,-0.00112957,0.00331910
 ,-0.09820275,0.10095586,0.25315147,-0.00255656,0.00157592,0.00359704,-
 0.00067529,-0.02420657,0.00727757,-0.04960845,-0.00998212,0.00356289,0
 .00258833,0.02669338,-0.01099621,-0.00603567,0.00054868,-0.00114949,-0
 .00044240,0.00004472,0.00015938,0.00009888,0.00048254,-0.00031142,0.00
 017974,-0.00105369,0.00096039,0.00042089,-0.00019247,0.00059011,0.0001
 3480,0.00168732,-0.00107370,0.00003846,-0.00006240,0.00021253,0.000092
 25,-0.00003132,-0.00004231,0.00018564,-0.00005702,-0.00004869,-0.00092
 223,-0.00912608,0.00373296,0.00135915,0.00124998,-0.00194482,0.0014699
 7,0.00140237,-0.00055705,-0.00049572,-0.00067023,0.00016153,0.00020444
 ,-0.00004722,0.00045108,0.00002716,0.00002145,0.00000676,-0.00010078,-
 0.00031739,-0.00003515,0.00000613,0.00001349,0.00001087,0.00000093,0.0
 0004056,-0.00001683,0.05403033,-0.00015680,0.00124736,0.00022897,0.001
 40110,-0.00330450,0.00015229,-0.01278057,-0.28280335,0.08814958,-0.000
 68272,-0.00774146,0.00290223,0.00219658,0.00105951,-0.00049118,-0.0001
 5802,-0.00000272,-0.00018986,0.00006984,0.00020666,-0.00021257,0.00004
 978,-0.00011480,0.00013743,0.00029659,-0.00014384,-0.00018194,-0.00003
 668,-0.00039155,0.00045220,-0.00008872,0.00024567,-0.00015168,-0.00001
 557,-0.00001033,0.00007191,0.00001856,-0.00003089,0.00005677,-0.001156
 95,-0.01616103,0.00646769,-0.00019497,0.00223106,-0.00135046,-0.001041
 96,0.00045863,-0.00069918,0.00041268,0.00076482,0.00012911,0.00001178,
 0.00016622,-0.00031303,-0.00008527,0.00001687,0.00005222,-0.00002600,0
 .00039032,0.00002619,-0.00001587,-0.00005241,-0.00002481,-0.00000289,-
 0.00002207,-0.00000625,0.01198610,0.30399185,0.00337318,-0.00181900,-0
 .00263401,0.00302450,0.02747864,-0.01180289,0.00442312,0.08512623,-0.0
 7671992,-0.00014145,0.00799741,-0.00421952,-0.00188365,-0.00010923,0.0
 0016605,0.00017205,-0.00024088,0.00043892,0.00008532,0.00015494,0.0002
 9647,0.00022372,0.00115057,-0.00066632,-0.00013383,-0.00025141,0.00008
 089,0.00005227,0.00057429,-0.00003579,0.00004525,0.00034572,0.00003491
 ,-0.00003143,0.00001536,-0.00008603,-0.00005337,-0.00002987,0.00000054
 ,-0.00124087,-0.02314767,0.00936741,-0.00370049,-0.00214522,0.00242012
 ,0.00020987,0.00099223,0.00029399,-0.00039169,-0.00036810,0.00009726,0
 .00017262,-0.00014175,0.00022587,0.00009479,-0.00006687,-0.00016395,0.
 00013006,-0.00040628,0.00028697,0.00012401,0.00008697,0.00003759,-0.00
 000658,0.00000955,0.00003985,-0.00454741,-0.09520562,0.08254158\\-0.00
 001070,-0.00000636,-0.00000655,-0.00003750,0.00003254,-0.00000128,-0.0
 0003109,0.00000718,-0.00002600,0.00001681,-0.00002091,0.00001282,-0.00
 001058,0.00001231,-0.00000090,0.00001724,-0.00000354,-0.00000071,0.000
 00929,-0.00000129,-0.00000005,0.00000765,-0.00000205,0.00000390,-0.000
 00274,-0.00000102,-0.00000847,0.00000160,0.00000215,-0.00000127,0.0000
 0138,0.00000292,-0.00000298,0.00000337,-0.00000187,0.00000275,-0.00000
 074,-0.00000287,0.00000074,0.00000963,-0.00000715,0.00000875,0.0000197
 7,-0.00002429,0.00000941,-0.00001451,0.00000559,0.00003163,-0.00000364
 ,-0.00000348,0.00000589,0.00000455,0.00000059,-0.00000551,-0.00001533,
 -0.00002534,0.00000632,0.00002460,0.00002143,-0.00002218,0.00000700,0.
 00002057,-0.00001135,0.00000077,-0.00000245,0.00000236,0.00000318,-0.0
 0000267,0.00000270\\\@


 SACRED COWS MAKE GREAT HAMBURGERS -- ROBERT REISNER
 Job cpu time:       0 days  0 hours 58 minutes 35.8 seconds.
 Elapsed time:       0 days  0 hours 58 minutes 35.6 seconds.
 File lengths (MBytes):  RWF=    149 Int=      0 D2E=      0 Chk=      7 Scr=      1
 Normal termination of Gaussian 16 at Mon Apr 15 12:24:38 2019.
