 Entering Gaussian System, Link 0=g16
 Input=CalcAll_LQA_Forward_5.com
 Output=CalcAll_LQA_Forward_5.log
 Initial command:
 /opt/g16/l1.exe "/scratch/Grace/g03/Gau-68256.inp" -scrdir="/scratch/Grace/g03/"
 Entering Link 1 = /opt/g16/l1.exe PID=     68257.
  
 Copyright (c) 1988,1990,1992,1993,1995,1998,2003,2009,2016,
            Gaussian, Inc.  All Rights Reserved.
  
 This is part of the Gaussian(R) 16 program.  It is based on
 the Gaussian(R) 09 system (copyright 2009, Gaussian, Inc.),
 the Gaussian(R) 03 system (copyright 2003, Gaussian, Inc.),
 the Gaussian(R) 98 system (copyright 1998, Gaussian, Inc.),
 the Gaussian(R) 94 system (copyright 1995, Gaussian, Inc.),
 the Gaussian 92(TM) system (copyright 1992, Gaussian, Inc.),
 the Gaussian 90(TM) system (copyright 1990, Gaussian, Inc.),
 the Gaussian 88(TM) system (copyright 1988, Gaussian, Inc.),
 the Gaussian 86(TM) system (copyright 1986, Carnegie Mellon
 University), and the Gaussian 82(TM) system (copyright 1983,
 Carnegie Mellon University). Gaussian is a federally registered
 trademark of Gaussian, Inc.
  
 This software contains proprietary and confidential information,
 including trade secrets, belonging to Gaussian, Inc.
  
 This software is provided under written license and may be
 used, copied, transmitted, or stored only in accord with that
 written license.
  
 The following legend is applicable only to US Government
 contracts under FAR:
  
                    RESTRICTED RIGHTS LEGEND
  
 Use, reproduction and disclosure by the US Government is
 subject to restrictions as set forth in subparagraphs (a)
 and (c) of the Commercial Computer Software - Restricted
 Rights clause in FAR 52.227-19.
  
 Gaussian, Inc.
 340 Quinnipiac St., Bldg. 40, Wallingford CT 06492
  
  
 ---------------------------------------------------------------
 Warning -- This program may not be used in any manner that
 competes with the business of Gaussian, Inc. or will provide
 assistance to any competitor of Gaussian, Inc.  The licensee
 of this program is prohibited from giving any competitor of
 Gaussian, Inc. access to this program.  By using this program,
 the user acknowledges that Gaussian, Inc. is engaged in the
 business of creating and licensing software in the field of
 computational chemistry and represents and warrants to the
 licensee that it is not a competitor of Gaussian, Inc. and that
 it will not use this program in any manner prohibited above.
 ---------------------------------------------------------------
  

 Cite this work as:
 Gaussian 16, Revision A.03,
 M. J. Frisch, G. W. Trucks, H. B. Schlegel, G. E. Scuseria, 
 M. A. Robb, J. R. Cheeseman, G. Scalmani, V. Barone, 
 G. A. Petersson, H. Nakatsuji, X. Li, M. Caricato, A. V. Marenich, 
 J. Bloino, B. G. Janesko, R. Gomperts, B. Mennucci, H. P. Hratchian, 
 J. V. Ortiz, A. F. Izmaylov, J. L. Sonnenberg, D. Williams-Young, 
 F. Ding, F. Lipparini, F. Egidi, J. Goings, B. Peng, A. Petrone, 
 T. Henderson, D. Ranasinghe, V. G. Zakrzewski, J. Gao, N. Rega, 
 G. Zheng, W. Liang, M. Hada, M. Ehara, K. Toyota, R. Fukuda, 
 J. Hasegawa, M. Ishida, T. Nakajima, Y. Honda, O. Kitao, H. Nakai, 
 T. Vreven, K. Throssell, J. A. Montgomery, Jr., J. E. Peralta, 
 F. Ogliaro, M. J. Bearpark, J. J. Heyd, E. N. Brothers, K. N. Kudin, 
 V. N. Staroverov, T. A. Keith, R. Kobayashi, J. Normand, 
 K. Raghavachari, A. P. Rendell, J. C. Burant, S. S. Iyengar, 
 J. Tomasi, M. Cossi, J. M. Millam, M. Klene, C. Adamo, R. Cammi, 
 J. W. Ochterski, R. L. Martin, K. Morokuma, O. Farkas, 
 J. B. Foresman, and D. J. Fox, Gaussian, Inc., Wallingford CT, 2016.
 
 ******************************************
 Gaussian 16:  ES64L-G16RevA.03 25-Dec-2016
                14-Apr-2019 
 ******************************************
 %NProcShared=16
 Will use up to   16 processors via shared memory.
 ----------------------------------------------------------------------
 #B3LYP/6-31+G(d,p) IRC(CalcAll,Forward,StepSize=5,LQA,MaxPoints=200,Ma
 xCycles=100) Nosymm
 ----------------------------------------------------------------------
 1/6=100,10=4,18=10,22=1,26=3,38=1,39=5,42=200,44=3,45=2,71=1,172=1/1,23;
 2/12=2,15=1,17=6,18=5,29=1,40=1/2;
 3/5=1,6=6,7=111,11=2,25=1,30=1,71=2,74=-5,140=1/1,2,3;
 4//1;
 5/5=2,38=5/2;
 8/6=4,10=90,11=11/1;
 11/6=1,8=1,9=11,15=111,16=1,31=1/1,2,10;
 10/6=1,13=1,31=1/2;
 6/7=2,8=2,9=2,10=2,18=1,28=1/1;
 7/10=1,25=1,30=1/1,2,3,16;
 1/6=100,10=4,18=10,22=1,26=3,39=5,42=200,44=3,45=2,71=1/23(2);
 2/15=1,29=1/2;
 99/5=20/99;
 2/15=1,29=1/2;
 3/5=1,6=6,7=111,11=2,25=1,30=1,71=2,74=-5,140=1/1,2,3;
 4/5=5,16=3,69=1/1;
 5/5=2,38=5/2;
 8/6=4,10=90,11=11/1;
 11/6=1,8=1,9=11,15=111,16=1,31=1/1,2,10;
 10/6=1,13=1,31=1/2;
 7/10=1,25=1,30=1/1,2,3,16;
 1/6=100,10=4,18=10,22=1,26=3,39=5,42=200,44=3,45=2,71=1/23(-8);
 2/15=1,29=1/2;
 6/7=2,8=2,9=2,10=2,18=1,19=2,28=1/1;
 99/5=20/99;
 ---
 IRC
 ---
 Symbolic Z-matrix:
 Charge =  0 Multiplicity = 1
 6                     1.46386   0.93071  -0.63673 
 6                     1.36018  -0.38637   0.1363 
 6                     0.26934  -0.39626   1.30017 
 6                    -1.03009   0.35266   1.01448 
 6                    -0.75306   1.73052   0.37302 
 6                     0.15302   1.69401  -0.87022 
 1                     2.14816   1.54294  -0.0303 
 1                     1.98755   0.7284   -1.57544 
 1                    -1.5251    0.54      1.98055 
 1                    -1.70441   2.2196    0.12701 
 1                    -0.27401   2.35928   1.13632 
 1                    -0.38217   1.26374  -1.72062 
 1                     0.39004   2.7237   -1.16503 
 1                     0.85014   0.10872   2.08617 
 8                     2.34349  -1.09304   0.30566 
 6                    -1.98669  -0.55628   0.2502 
 1                    -2.25339  -1.41781   0.86698 
 1                    -2.90304  -0.04596  -0.06336 
 6                    -1.34419  -1.14469  -1.10732 
 7                    -0.07906  -1.55463  -0.75162 
 1                    -2.01052  -1.98489  -1.37798 
 1                    -1.41599  -0.33833  -1.8601 
 1                     0.10412  -1.41849   1.65245 
 
 IRC-IRC-IRC-IRC-IRC-IRC-IRC-IRC-IRC-IRC-IRC-IRC-IRC-IRC-IRC-IRC-IRC-IRC
 ------------------------------------------------------------------------
 INPUT DATA FOR L123
 ------------------------------------------------------------------------
 GENERAL PARAMETERS:
 Rxn path following direction = Forward
 Maximum points per path      = 200
 Step size                    =   0.050 bohr
 Integration scheme           = LQA                                 
 Initial Hessian              = CalcFC
 Hessian evaluation           = Analytic at all predictor steps
                              = Update at all corrector steps
 Hessian updating method      = Bofill                              
 ------------------------------------------------------------------------
 IRC-IRC-IRC-IRC-IRC-IRC-IRC-IRC-IRC-IRC-IRC-IRC-IRC-IRC-IRC-IRC-IRC-IRC
                          Input orientation:                          
 ---------------------------------------------------------------------
 Center     Atomic      Atomic             Coordinates (Angstroms)
 Number     Number       Type             X           Y           Z
 ---------------------------------------------------------------------
      1          6           0        1.463859    0.930708   -0.636728
      2          6           0        1.360177   -0.386368    0.136302
      3          6           0        0.269341   -0.396256    1.300168
      4          6           0       -1.030094    0.352656    1.014480
      5          6           0       -0.753063    1.730524    0.373019
      6          6           0        0.153016    1.694013   -0.870223
      7          1           0        2.148155    1.542943   -0.030304
      8          1           0        1.987553    0.728397   -1.575439
      9          1           0       -1.525095    0.540003    1.980551
     10          1           0       -1.704412    2.219601    0.127006
     11          1           0       -0.274014    2.359284    1.136318
     12          1           0       -0.382169    1.263744   -1.720623
     13          1           0        0.390039    2.723695   -1.165029
     14          1           0        0.850136    0.108718    2.086174
     15          8           0        2.343494   -1.093037    0.305662
     16          6           0       -1.986693   -0.556283    0.250197
     17          1           0       -2.253394   -1.417812    0.866979
     18          1           0       -2.903038   -0.045960   -0.063361
     19          6           0       -1.344193   -1.144692   -1.107316
     20          7           0       -0.079060   -1.554632   -0.751618
     21          1           0       -2.010525   -1.984886   -1.377977
     22          1           0       -1.415986   -0.338334   -1.860103
     23          1           0        0.104120   -1.418488    1.652448
 ---------------------------------------------------------------------
                    Distance matrix (angstroms):
                    1          2          3          4          5
     1  C    0.000000
     2  C    1.530691   0.000000
     3  C    2.634250   1.595182   0.000000
     4  C    3.046380   2.651556   1.526767   0.000000
     5  C    2.563989   3.000508   2.535371   1.544907   0.000000
     6  C    1.534752   2.607358   3.015519   2.598287   1.538819
     7  H    1.100383   2.090672   3.010081   3.551003   2.935119
     8  H    1.093784   2.136904   3.533584   3.994378   3.508807
     9  H    3.992073   3.547423   2.135299   1.101553   2.144186
    10  H    3.504636   4.022793   3.480620   2.174350   1.097626
    11  H    2.864389   3.348017   2.813376   2.147803   1.098841
    12  H    2.166463   3.034273   3.507883   2.954772   2.176875
    13  H    2.155689   3.508151   3.978173   3.519782   2.158393
    14  H    2.909728   2.075392   1.100058   2.177912   2.852263
    15  O    2.399458   1.222692   2.403468   3.738121   4.191145
    16  C    3.860581   3.353115   2.493539   1.524920   2.601233
    17  H    4.647004   3.828271   2.755979   2.157030   3.522358
    18  H    4.511366   4.281442   3.470721   2.197397   2.822891
    19  C    3.523336   3.071687   2.993264   2.615861   3.287506
    20  N    2.927578   2.055394   2.381815   2.767908   3.537137
    21  H    4.595811   4.026156   3.859274   3.485570   4.295517
    22  H    3.376481   3.419798   3.582038   2.981544   3.115521
    23  H    3.550766   2.222982   1.093781   2.197816   3.505421
                    6          7          8          9         10
     6  C    0.000000
     7  H    2.169992   0.000000
     8  H    2.189810   1.754058   0.000000
     9  H    3.503528   4.306065   5.001925   0.000000
    10  H    2.172728   3.914701   4.330429   2.507755   0.000000
    11  H    2.156652   2.809684   3.889486   2.363835   1.756206
    12  H    1.093039   3.055760   2.433774   3.940656   2.464898
    13  H    1.096966   2.402654   2.588764   4.281463   2.512009
    14  H    3.426284   2.867287   3.883958   2.416379   3.849660
    15  O    3.734775   2.664474   2.642510   4.520847   5.233644
    16  C    3.301140   4.645686   4.558287   2.099772   2.792918
    17  H    4.300248   5.380039   5.343898   2.367172   3.752295
    18  H    3.608046   5.295305   5.177247   2.533704   2.570158
    19  C    3.218089   4.536500   3.850731   3.522193   3.601635
    20  N    3.259083   3.882750   3.187757   3.734068   4.202212
    21  H    4.298025   5.617510   4.835858   4.229706   4.476203
    22  H    2.751738   4.426112   3.578132   3.941320   3.251895
    23  H    4.006735   3.972381   4.309952   2.568595   4.339753
                   11         12         13         14         15
    11  H    0.000000
    12  H    3.061702   0.000000
    13  H    2.422800   1.742540   0.000000
    14  H    2.689049   4.164657   4.197632   0.000000
    15  O    4.411333   4.133943   4.532809   2.616210   0.000000
    16  C    3.495570   3.125880   4.290685   3.443928   4.363680
    17  H    4.272814   4.169881   5.316848   3.667237   4.642406
    18  H    3.759813   3.288863   4.441736   4.327903   5.362709
    19  C    4.296164   2.664995   4.239730   4.072407   3.949457
    20  N    4.349833   2.995678   4.323777   3.418070   2.683222
    21  H    5.311211   3.650006   5.289498   4.956501   4.752633
    22  H    4.190439   1.911776   3.622275   4.572556   4.403840
    23  H    3.831571   4.336871   5.017729   1.754143   2.633353
                   16         17         18         19         20
    16  C    0.000000
    17  H    1.092603   0.000000
    18  H    1.094731   1.780322   0.000000
    19  C    1.613032   2.190681   2.174178   0.000000
    20  N    2.374742   2.714094   3.274850   1.376638   0.000000
    21  H    2.166201   2.328172   2.506836   1.105975   2.075572
    22  H    2.196947   3.050164   2.350551   1.105466   2.120257
    23  H    2.661053   2.484921   3.724357   3.128717   2.414875
                   21         22         23
    21  H    0.000000
    22  H    1.815780   0.000000
    23  H    3.738450   3.976867   0.000000
 Symmetry turned off by external request.
 Stoichiometry    C8H13NO
 Framework group  C1[X(C8H13NO)]
 Deg. of freedom    63
 Full point group                 C1      NOp   1
 Rotational constants (GHZ):           1.7603598           1.4060199           1.1252446
 Standard basis: 6-31+G(d,p) (6D, 7F)
   255 basis functions,   411 primitive gaussians,   255 cartesian basis functions
    38 alpha electrons       38 beta electrons
       nuclear repulsion energy       565.9478777484 Hartrees.
 NAtoms=   23 NActive=   23 NUniq=   23 SFac= 1.00D+00 NAtFMM=   60 NAOKFM=F Big=F
 Integral buffers will be    131072 words long.
 Raffenetti 2 integral format.
 Two-electron integral symmetry is turned off.
 One-electron integrals computed using PRISM.
 NBasis=   255 RedAO= T EigKep=  1.61D-05  NBF=   255
 NBsUse=   255 1.00D-06 EigRej= -1.00D+00 NBFU=   255
 ExpMin= 4.38D-02 ExpMax= 5.48D+03 ExpMxC= 8.25D+02 IAcc=3 IRadAn=         5 AccDes= 0.00D+00
 Harris functional with IExCor=  402 and IRadAn=       5 diagonalized for initial guess.
 HarFok:  IExCor=  402 AccDes= 0.00D+00 IRadAn=         5 IDoV= 1 UseB2=F ITyADJ=14
 ICtDFT=  3500011 ScaDFX=  1.000000  1.000000  1.000000  1.000000
 FoFCou: FMM=F IPFlag=           0 FMFlag=      100000 FMFlg1=           0
         NFxFlg=           0 DoJE=T BraDBF=F KetDBF=T FulRan=T
         wScrn=  0.000000 ICntrl=       500 IOpCl=  0 I1Cent=   200000004 NGrid=           0
         NMat0=    1 NMatS0=      1 NMatT0=    0 NMatD0=    1 NMtDS0=    0 NMtDT0=    0
 Symmetry not used in FoFCou.
 Requested convergence on RMS density matrix=1.00D-08 within 128 cycles.
 Requested convergence on MAX density matrix=1.00D-06.
 Requested convergence on             energy=1.00D-06.
 No special actions if energy rises.
 EnCoef did     3 forward-backward iterations
 SCF Done:  E(RB3LYP) =  -442.511930514     A.U. after   18 cycles
            NFock= 18  Conv=0.96D-08     -V/T= 2.0096
 DoSCS=F DFT=T ScalE2(SS,OS)=  1.000000  1.000000
 Range of M.O.s used for correlation:     1   255
 NBasis=   255 NAE=    38 NBE=    38 NFC=     0 NFV=     0
 NROrb=    255 NOA=    38 NOB=    38 NVA=   217 NVB=   217

 **** Warning!!: The largest alpha MO coefficient is  0.48487412D+02


 **** Warning!!: The smallest alpha delta epsilon is  0.76766673D-01

 Symmetrizing basis deriv contribution to polar:
 IMax=3 JMax=2 DiffMx= 0.00D+00
 G2DrvN: will do    24 centers at a time, making    1 passes.
 Calling FoFCou, ICntrl=  3107 FMM=F I1Cent=   0 AccDes= 0.00D+00.
 End of G2Drv F.D. properties file   721 does not exist.
 End of G2Drv F.D. properties file   722 does not exist.
 End of G2Drv F.D. properties file   788 does not exist.
          IDoAtm=11111111111111111111111
          Differentiating once with respect to nuclear coordinates.
 CalDSu exits because no D1Ps are significant.
          There are    72 degrees of freedom in the 1st order CPHF.  IDoFFX=6 NUNeed=     0.
     66 vectors produced by pass  0 Test12= 1.15D-14 1.39D-09 XBig12= 2.79D-01 2.20D-01.
 AX will form    48 AO Fock derivatives at one time.
     66 vectors produced by pass  1 Test12= 1.15D-14 1.39D-09 XBig12= 5.59D-02 3.30D-02.
     66 vectors produced by pass  2 Test12= 1.15D-14 1.39D-09 XBig12= 6.69D-04 4.19D-03.
     66 vectors produced by pass  3 Test12= 1.15D-14 1.39D-09 XBig12= 2.21D-06 1.93D-04.
     66 vectors produced by pass  4 Test12= 1.15D-14 1.39D-09 XBig12= 3.19D-09 5.57D-06.
     57 vectors produced by pass  5 Test12= 1.15D-14 1.39D-09 XBig12= 2.82D-12 1.66D-07.
      7 vectors produced by pass  6 Test12= 1.15D-14 1.39D-09 XBig12= 2.45D-15 5.09D-09.
 InvSVY:  IOpt=1 It=  1 EMax= 9.99D-16
 Solved reduced A of dimension   394 with    72 vectors.
 End of Minotr F.D. properties file   721 does not exist.
 End of Minotr F.D. properties file   722 does not exist.
 End of Minotr F.D. properties file   788 does not exist.

 **********************************************************************

            Population analysis using the SCF density.

 **********************************************************************

 Alpha  occ. eigenvalues --  -19.12033 -14.37381 -10.28321 -10.23806 -10.23757
 Alpha  occ. eigenvalues --  -10.21938 -10.21026 -10.20450 -10.19856 -10.19479
 Alpha  occ. eigenvalues --   -1.02401  -0.89740  -0.83453  -0.78188  -0.74062
 Alpha  occ. eigenvalues --   -0.71182  -0.63467  -0.60803  -0.58011  -0.53632
 Alpha  occ. eigenvalues --   -0.49088  -0.48041  -0.47075  -0.45096  -0.44853
 Alpha  occ. eigenvalues --   -0.43750  -0.41987  -0.41033  -0.39917  -0.38336
 Alpha  occ. eigenvalues --   -0.37203  -0.35791  -0.34334  -0.33589  -0.33266
 Alpha  occ. eigenvalues --   -0.30312  -0.23421  -0.22082
 Alpha virt. eigenvalues --   -0.14406  -0.01170   0.00173   0.00717   0.01976
 Alpha virt. eigenvalues --    0.02839   0.03494   0.03642   0.04290   0.05017
 Alpha virt. eigenvalues --    0.05476   0.07183   0.07482   0.08143   0.08344
 Alpha virt. eigenvalues --    0.09039   0.09889   0.10235   0.11295   0.12222
 Alpha virt. eigenvalues --    0.12410   0.12984   0.13124   0.13723   0.14242
 Alpha virt. eigenvalues --    0.15090   0.15743   0.16831   0.17521   0.17913
 Alpha virt. eigenvalues --    0.18040   0.18343   0.19225   0.19814   0.19907
 Alpha virt. eigenvalues --    0.20582   0.21424   0.22267   0.22891   0.23115
 Alpha virt. eigenvalues --    0.23922   0.24503   0.25403   0.26211   0.26494
 Alpha virt. eigenvalues --    0.27985   0.28164   0.28637   0.30518   0.31173
 Alpha virt. eigenvalues --    0.31320   0.32518   0.33227   0.34674   0.35607
 Alpha virt. eigenvalues --    0.36129   0.36701   0.37072   0.38535   0.39517
 Alpha virt. eigenvalues --    0.39794   0.41229   0.42898   0.44148   0.46169
 Alpha virt. eigenvalues --    0.59677   0.62091   0.62897   0.63295   0.65538
 Alpha virt. eigenvalues --    0.66663   0.68803   0.69567   0.71273   0.72839
 Alpha virt. eigenvalues --    0.73547   0.75648   0.76345   0.77487   0.78204
 Alpha virt. eigenvalues --    0.80068   0.82605   0.83046   0.85830   0.87491
 Alpha virt. eigenvalues --    0.90989   0.93577   0.95519   0.95636   0.96087
 Alpha virt. eigenvalues --    0.97116   0.99129   1.02444   1.04187   1.04579
 Alpha virt. eigenvalues --    1.06060   1.07461   1.08407   1.10503   1.11166
 Alpha virt. eigenvalues --    1.13344   1.13876   1.15546   1.16611   1.17327
 Alpha virt. eigenvalues --    1.21104   1.23988   1.28493   1.29542   1.30717
 Alpha virt. eigenvalues --    1.34512   1.36754   1.37948   1.39763   1.41804
 Alpha virt. eigenvalues --    1.46936   1.48010   1.53126   1.55809   1.57840
 Alpha virt. eigenvalues --    1.59898   1.61694   1.65678   1.68283   1.71242
 Alpha virt. eigenvalues --    1.73662   1.74463   1.77178   1.77514   1.80345
 Alpha virt. eigenvalues --    1.82648   1.83135   1.84137   1.85421   1.88440
 Alpha virt. eigenvalues --    1.90119   1.94113   1.95280   1.97270   2.00447
 Alpha virt. eigenvalues --    2.01040   2.02887   2.03955   2.07203   2.08541
 Alpha virt. eigenvalues --    2.10510   2.11681   2.12406   2.15715   2.17994
 Alpha virt. eigenvalues --    2.18880   2.20633   2.22431   2.25078   2.26134
 Alpha virt. eigenvalues --    2.28287   2.29530   2.30373   2.34549   2.35449
 Alpha virt. eigenvalues --    2.38128   2.40287   2.42712   2.43456   2.44322
 Alpha virt. eigenvalues --    2.44989   2.50663   2.51317   2.53436   2.54443
 Alpha virt. eigenvalues --    2.57690   2.59590   2.60857   2.64831   2.65542
 Alpha virt. eigenvalues --    2.66635   2.67605   2.71104   2.72223   2.75075
 Alpha virt. eigenvalues --    2.77294   2.78297   2.81565   2.82666   2.85585
 Alpha virt. eigenvalues --    2.86347   2.88376   2.90017   2.90870   2.92536
 Alpha virt. eigenvalues --    2.94009   2.95413   3.02052   3.24005   3.27331
 Alpha virt. eigenvalues --    3.29517   3.32425   3.35567   3.35822   3.40754
 Alpha virt. eigenvalues --    3.44639   3.47825   3.50173   3.50785   3.52886
 Alpha virt. eigenvalues --    3.53937   3.56552   4.13658   4.29502   4.37017
 Alpha virt. eigenvalues --    4.49142   4.54044   4.59151   4.68414   4.76699
 Alpha virt. eigenvalues --    4.79652   4.86004
          Condensed to atoms (all electrons):
               1          2          3          4          5          6
     1  C    6.452114  -1.031750   0.278203   0.140934  -0.044480  -0.059137
     2  C   -1.031750   8.142764  -1.830687   0.018992   0.019891   0.086630
     3  C    0.278203  -1.830687   7.694371  -0.479562   0.018178  -0.007937
     4  C    0.140934   0.018992  -0.479562   6.772687  -0.258850  -0.105625
     5  C   -0.044480   0.019891   0.018178  -0.258850   5.849073   0.056352
     6  C   -0.059137   0.086630  -0.007937  -0.105625   0.056352   5.625428
     7  H    0.409382  -0.051517   0.003468   0.000377   0.006682  -0.051537
     8  H    0.429258  -0.091933   0.035542  -0.010867   0.021486  -0.056966
     9  H   -0.011393   0.001264   0.018631   0.252337  -0.015480   0.025733
    10  H    0.038834  -0.030074   0.029363  -0.074629   0.415569  -0.053742
    11  H   -0.009670   0.010508  -0.020476  -0.048474   0.432252  -0.059895
    12  H   -0.088221   0.058786  -0.028638   0.003384  -0.021943   0.390004
    13  H   -0.028881   0.012405  -0.006848   0.030170  -0.053747   0.378467
    14  H   -0.019270   0.029816   0.328686  -0.019840  -0.006413  -0.003502
    15  O   -0.153125   0.499419  -0.081792   0.009701  -0.022059   0.017884
    16  C   -0.139141   0.284568  -0.076497  -0.317464   0.080511  -0.027276
    17  H    0.001854   0.002669  -0.033492  -0.022998   0.016515  -0.006497
    18  H    0.005275  -0.016850   0.034954  -0.072343  -0.011032   0.004045
    19  C    0.207880  -0.404635   0.164512  -0.005293   0.055133  -0.138798
    20  N   -0.076939   0.128895  -0.023454  -0.021068  -0.103330   0.110421
    21  H    0.000715  -0.008325  -0.003158   0.066488  -0.018210   0.011985
    22  H   -0.005308   0.026993   0.000996  -0.105301   0.076021  -0.058143
    23  H    0.002701   0.019072   0.352676  -0.026895   0.006438   0.000022
               7          8          9         10         11         12
     1  C    0.409382   0.429258  -0.011393   0.038834  -0.009670  -0.088221
     2  C   -0.051517  -0.091933   0.001264  -0.030074   0.010508   0.058786
     3  C    0.003468   0.035542   0.018631   0.029363  -0.020476  -0.028638
     4  C    0.000377  -0.010867   0.252337  -0.074629  -0.048474   0.003384
     5  C    0.006682   0.021486  -0.015480   0.415569   0.432252  -0.021943
     6  C   -0.051537  -0.056966   0.025733  -0.053742  -0.059895   0.390004
     7  H    0.556535  -0.025442  -0.000011  -0.000073   0.002123   0.004873
     8  H   -0.025442   0.535650   0.000008  -0.000115  -0.000029  -0.005413
     9  H   -0.000011   0.000008   0.598318  -0.002522  -0.006248  -0.000110
    10  H   -0.000073  -0.000115  -0.002522   0.582140  -0.030606  -0.005266
    11  H    0.002123  -0.000029  -0.006248  -0.030606   0.573104   0.005273
    12  H    0.004873  -0.005413  -0.000110  -0.005266   0.005273   0.594737
    13  H   -0.006745  -0.000463  -0.000144  -0.001808  -0.006229  -0.032502
    14  H    0.000480   0.000035  -0.003355  -0.000023   0.001733   0.000036
    15  O   -0.010130   0.001512  -0.000219   0.000186  -0.000784  -0.001439
    16  C   -0.002603   0.003000   0.006046  -0.012092   0.015352   0.023186
    17  H   -0.000001   0.000000  -0.006147   0.000116  -0.000156  -0.000048
    18  H   -0.000002   0.000001  -0.000749   0.003127   0.000096   0.000101
    19  C   -0.002316   0.001528  -0.000391   0.004458  -0.002948  -0.027573
    20  N    0.005889  -0.005062   0.004836   0.000681  -0.000245  -0.001416
    21  H    0.000004  -0.000017  -0.000076  -0.000017   0.000004   0.000287
    22  H   -0.000104   0.000520   0.000011   0.000235  -0.000059   0.003906
    23  H   -0.000061  -0.000096  -0.002530  -0.000120   0.000001  -0.000008
              13         14         15         16         17         18
     1  C   -0.028881  -0.019270  -0.153125  -0.139141   0.001854   0.005275
     2  C    0.012405   0.029816   0.499419   0.284568   0.002669  -0.016850
     3  C   -0.006848   0.328686  -0.081792  -0.076497  -0.033492   0.034954
     4  C    0.030170  -0.019840   0.009701  -0.317464  -0.022998  -0.072343
     5  C   -0.053747  -0.006413  -0.022059   0.080511   0.016515  -0.011032
     6  C    0.378467  -0.003502   0.017884  -0.027276  -0.006497   0.004045
     7  H   -0.006745   0.000480  -0.010130  -0.002603  -0.000001  -0.000002
     8  H   -0.000463   0.000035   0.001512   0.003000   0.000000   0.000001
     9  H   -0.000144  -0.003355  -0.000219   0.006046  -0.006147  -0.000749
    10  H   -0.001808  -0.000023   0.000186  -0.012092   0.000116   0.003127
    11  H   -0.006229   0.001733  -0.000784   0.015352  -0.000156   0.000096
    12  H   -0.032502   0.000036  -0.001439   0.023186  -0.000048   0.000101
    13  H    0.579054  -0.000058  -0.000389  -0.004901   0.000004  -0.000023
    14  H   -0.000058   0.528997  -0.021914   0.017498   0.000010  -0.000185
    15  O   -0.000389  -0.021914   8.226188  -0.018680  -0.000117   0.000147
    16  C   -0.004901   0.017498  -0.018680   5.892223   0.393716   0.398570
    17  H    0.000004   0.000010  -0.000117   0.393716   0.542313  -0.028943
    18  H   -0.000023  -0.000185   0.000147   0.398570  -0.028943   0.553200
    19  C    0.003854   0.001300   0.024851  -0.076661  -0.030512  -0.028819
    20  N   -0.001226   0.002704  -0.085202   0.083128  -0.001184   0.003689
    21  H   -0.000005   0.000006  -0.000477  -0.068932  -0.009847  -0.003607
    22  H    0.000123  -0.000011   0.000117   0.022644   0.004851  -0.004454
    23  H    0.000010  -0.021945  -0.002161  -0.010618   0.002870   0.000146
              19         20         21         22         23
     1  C    0.207880  -0.076939   0.000715  -0.005308   0.002701
     2  C   -0.404635   0.128895  -0.008325   0.026993   0.019072
     3  C    0.164512  -0.023454  -0.003158   0.000996   0.352676
     4  C   -0.005293  -0.021068   0.066488  -0.105301  -0.026895
     5  C    0.055133  -0.103330  -0.018210   0.076021   0.006438
     6  C   -0.138798   0.110421   0.011985  -0.058143   0.000022
     7  H   -0.002316   0.005889   0.000004  -0.000104  -0.000061
     8  H    0.001528  -0.005062  -0.000017   0.000520  -0.000096
     9  H   -0.000391   0.004836  -0.000076   0.000011  -0.002530
    10  H    0.004458   0.000681  -0.000017   0.000235  -0.000120
    11  H   -0.002948  -0.000245   0.000004  -0.000059   0.000001
    12  H   -0.027573  -0.001416   0.000287   0.003906  -0.000008
    13  H    0.003854  -0.001226  -0.000005   0.000123   0.000010
    14  H    0.001300   0.002704   0.000006  -0.000011  -0.021945
    15  O    0.024851  -0.085202  -0.000477   0.000117  -0.002161
    16  C   -0.076661   0.083128  -0.068932   0.022644  -0.010618
    17  H   -0.030512  -0.001184  -0.009847   0.004851   0.002870
    18  H   -0.028819   0.003689  -0.003607  -0.004454   0.000146
    19  C    5.656089   0.003089   0.404568   0.381280  -0.010870
    20  N    0.003089   7.268668  -0.075206  -0.072943  -0.005226
    21  H    0.404568  -0.075206   0.628121  -0.073201  -0.000319
    22  H    0.381280  -0.072943  -0.073201   0.675596   0.000184
    23  H   -0.010870  -0.005226  -0.000319   0.000184   0.503879
 Mulliken charges:
               1
     1  C   -0.299834
     2  C    0.123100
     3  C   -0.367038
     4  C    0.274139
     5  C   -0.498558
     6  C   -0.077917
     7  H    0.160728
     8  H    0.167862
     9  H    0.142192
    10  H    0.136377
    11  H    0.145371
    12  H    0.128003
    13  H    0.139880
    14  H    0.185216
    15  O   -0.381517
    16  C   -0.465579
    17  H    0.175024
    18  H    0.163655
    19  C   -0.179724
    20  N   -0.139498
    21  H    0.149220
    22  H    0.126048
    23  H    0.192849
 Sum of Mulliken charges =  -0.00000
 Mulliken charges with hydrogens summed into heavy atoms:
               1
     1  C    0.028757
     2  C    0.123100
     3  C    0.011027
     4  C    0.416332
     5  C   -0.216811
     6  C    0.189966
    15  O   -0.381517
    16  C   -0.126899
    19  C    0.095544
    20  N   -0.139498
 APT charges:
               1
     1  C   -0.879081
     2  C   -0.483724
     3  C   -0.677889
     4  C   -0.133088
     5  C   -1.169001
     6  C   -0.662963
     7  H    0.473156
     8  H    0.491768
     9  H    0.507395
    10  H    0.483107
    11  H    0.436961
    12  H    0.305152
    13  H    0.564081
    14  H    0.485412
    15  O   -0.094891
    16  C   -1.125649
    17  H    0.497743
    18  H    0.518925
    19  C   -0.678456
    20  N   -0.183274
    21  H    0.580211
    22  H    0.294565
    23  H    0.449541
 Sum of APT charges =  -0.00000
 APT charges with hydrogens summed into heavy atoms:
               1
     1  C    0.085843
     2  C   -0.483724
     3  C    0.257063
     4  C    0.374307
     5  C   -0.248934
     6  C    0.206270
    15  O   -0.094891
    16  C   -0.108981
    19  C    0.196320
    20  N   -0.183274
 Electronic spatial extent (au):  <R**2>=           1282.5423
 Charge=             -0.0000 electrons
 Dipole moment (field-independent basis, Debye):
    X=             -4.9006    Y=              3.3101    Z=              0.2340  Tot=              5.9184
 Quadrupole moment (field-independent basis, Debye-Ang):
   XX=            -67.1063   YY=            -66.4623   ZZ=            -58.6630
   XY=              8.2186   XZ=             -0.7297   YZ=              0.2491
 Traceless Quadrupole moment (field-independent basis, Debye-Ang):
   XX=             -3.0291   YY=             -2.3851   ZZ=              5.4142
   XY=              8.2186   XZ=             -0.7297   YZ=              0.2491
 Octapole moment (field-independent basis, Debye-Ang**2):
  XXX=            -28.8648  YYY=              9.4388  ZZZ=              1.7780  XYY=             -7.5334
  XXY=             10.8045  XXZ=             -4.6550  XZZ=              1.2759  YZZ=             -2.4851
  YYZ=              0.5319  XYZ=              0.8660
 Hexadecapole moment (field-independent basis, Debye-Ang**3):
 XXXX=           -822.3226 YYYY=           -629.6099 ZZZZ=           -359.1584 XXXY=             35.0844
 XXXZ=             -6.2849 YYYX=             14.2821 YYYZ=             -2.3124 ZZZX=              0.4120
 ZZZY=              3.5088 XXYY=           -237.0489 XXZZ=           -184.2962 YYZZ=           -158.4217
 XXYZ=              6.3609 YYXZ=              0.4422 ZZXY=              3.2450
 N-N= 5.659478777484D+02 E-N=-2.159142985035D+03  KE= 4.382845579833D+02
  Exact polarizability:   0.000   0.000   0.000   0.000   0.000   0.000
 Approx polarizability: 227.040  11.753 153.764  36.238  17.940 164.001
 Calling FoFJK, ICntrl=    100127 FMM=F ISym2X=0 I1Cent= 0 IOpClX= 0 NMat=1 NMatS=1 NMatT=0.
 -------------------------------------------------------------------
 Center     Atomic                   Forces (Hartrees/Bohr)
 Number     Number              X              Y              Z
 -------------------------------------------------------------------
      1        6           0.000027849   -0.000085068    0.000123301
      2        6          -0.000187339    0.000104124    0.000076044
      3        6           0.000136806   -0.000141718   -0.000031998
      4        6          -0.000051903    0.000176370   -0.000047385
      5        6          -0.000077220    0.000109016   -0.000033427
      6        6           0.000176813   -0.000118750   -0.000079326
      7        1          -0.000011388   -0.000011952    0.000010463
      8        1          -0.000015165    0.000034995   -0.000006184
      9        1           0.000006831   -0.000048353    0.000010849
     10        1           0.000005652    0.000019269    0.000042875
     11        1          -0.000009158    0.000004657    0.000019273
     12        1          -0.000050006   -0.000043462   -0.000031501
     13        1          -0.000020880    0.000019156    0.000025431
     14        1           0.000026860    0.000001759   -0.000030592
     15        8          -0.000002913    0.000022857   -0.000018853
     16        6          -0.000032357    0.000014251    0.000107829
     17        1           0.000026056    0.000005618   -0.000010921
     18        1          -0.000001045   -0.000020166   -0.000023409
     19        6          -0.000002904   -0.000024077   -0.000075014
     20        7           0.000070016    0.000003133   -0.000029062
     21        1           0.000000417    0.000025795    0.000006930
     22        1          -0.000038100   -0.000042815    0.000045989
     23        1           0.000023080   -0.000004640   -0.000051310
 -------------------------------------------------------------------
 Cartesian Forces:  Max     0.000187339 RMS     0.000062997
 IRC-IRC-IRC-IRC-IRC-IRC-IRC-IRC-IRC-IRC-IRC-IRC-IRC-IRC-IRC-IRC-IRC-IRC
          ******** Start new reaction path calculation ********
 Supplied step size of   0.0500 bohr.
    Integration on MW PES will use step size of   0.1272 sqrt(amu)*bohr.
 Point Number:   0          Path Number:   1
 Calculating another point on the path.
 IRC-IRC-IRC-IRC-IRC-IRC-IRC-IRC-IRC-IRC-IRC-IRC-IRC-IRC-IRC-IRC-IRC-IRC
                          Input orientation:                          
 ---------------------------------------------------------------------
 Center     Atomic      Atomic             Coordinates (Angstroms)
 Number     Number       Type             X           Y           Z
 ---------------------------------------------------------------------
      1          6           0        1.415442    0.976362   -0.635571
      2          6           0        1.315041   -0.335555    0.145643
      3          6           0        0.223073   -0.349684    1.301672
      4          6           0       -1.078226    0.397273    1.014717
      5          6           0       -0.802580    1.775143    0.373104
      6          6           0        0.103630    1.738329   -0.869931
      7          1           0        2.100194    1.592418   -0.033280
      8          1           0        1.937882    0.770343   -1.574134
      9          1           0       -1.574768    0.584390    1.980018
     10          1           0       -1.754196    2.263634    0.126821
     11          1           0       -0.324062    2.404377    1.136354
     12          1           0       -0.431201    1.306335   -1.719724
     13          1           0        0.339511    2.767896   -1.166031
     14          1           0        0.796202    0.153008    2.095103
     15          8           0        2.295109   -1.047653    0.306317
     16          6           0       -2.034697   -0.512403    0.251152
     17          1           0       -2.300527   -1.374450    0.867354
     18          1           0       -2.951063   -0.002398   -0.062820
     19          6           0       -1.398577   -1.102591   -1.111713
     20          7           0       -0.137115   -1.513907   -0.756062
     21          1           0       -2.072658   -1.938223   -1.378798
     22          1           0       -1.470668   -0.293242   -1.861681
     23          1           0        0.057862   -1.373799    1.649160
 ---------------------------------------------------------------------
                    Distance matrix (angstroms):
                    1          2          3          4          5
     1  C    0.000000
     2  C    1.530196   0.000000
     3  C    2.633068   1.590281   0.000000
     4  C    3.045845   2.649538   1.527634   0.000000
     5  C    2.564195   2.998517   2.535566   1.544725   0.000000
     6  C    1.535047   2.607662   3.014950   2.597521   1.538736
     7  H    1.100530   2.089392   3.012879   3.553734   2.936773
     8  H    1.093751   2.137423   3.530622   3.992273   3.508774
     9  H    3.992029   3.544323   2.136558   1.101532   2.143908
    10  H    3.504984   4.021984   3.481279   2.174534   1.097657
    11  H    2.864404   3.342961   2.812746   2.147562   1.098846
    12  H    2.166647   3.037229   3.507037   2.953338   2.176611
    13  H    2.156063   3.507642   3.977740   3.519303   2.158441
    14  H    2.918553   2.075640   1.100322   2.177241   2.855295
    15  O    2.399501   1.222061   2.402337   3.737517   4.191458
    16  C    3.860849   3.356062   2.495516   1.524920   2.601125
    17  H    4.646883   3.830470   2.758140   2.157485   3.522509
    18  H    4.511361   4.284168   3.472403   2.197349   2.822350
    19  C    3.530929   3.087558   3.003505   2.621817   3.292605
    20  N    2.937071   2.076136   2.391530   2.770190   3.540580
    21  H    4.605869   4.045859   3.870240   3.488890   4.297831
    22  H    3.383027   3.433849   3.588697   2.984039   3.117503
    23  H    3.547714   2.217885   1.094008   2.197705   3.504928
                    6          7          8          9         10
     6  C    0.000000
     7  H    2.169688   0.000000
     8  H    2.190293   1.753963   0.000000
     9  H    3.502971   4.309853   5.000529   0.000000
    10  H    2.172781   3.915672   4.330659   2.507268   0.000000
    11  H    2.156784   2.811465   3.890142   2.363976   1.756202
    12  H    1.093074   3.055143   2.433319   3.939168   2.465050
    13  H    1.096961   2.401016   2.590667   4.281330   2.511843
    14  H    3.432831   2.881374   3.892023   2.412640   3.851416
    15  O    3.734680   2.668950   2.639852   4.521149   5.233901
    16  C    3.300767   4.648495   4.556149   2.098444   2.792941
    17  H    4.299712   5.383289   5.340891   2.366813   3.752669
    18  H    3.607313   5.297123   5.175228   2.532133   2.569700
    19  C    3.222718   4.546151   3.854047   3.526436   3.604429
    20  N    3.263121   3.895795   3.192593   3.735750   4.202886
    21  H    4.302581   5.629258   4.843441   4.230026   4.474809
    22  H    2.754862   4.432812   3.582194   3.942046   3.251484
    23  H    4.004155   3.974943   4.303655   2.570886   4.339584
                   11         12         13         14         15
    11  H    0.000000
    12  H    3.061757   0.000000
    13  H    2.423520   1.742623   0.000000
    14  H    2.691255   4.170083   4.204902   0.000000
    15  O    4.411976   4.132659   4.533275   2.624513   0.000000
    16  C    3.495348   3.124638   4.290178   3.443388   4.363114
    17  H    4.272974   4.168208   5.316341   3.664727   4.641275
    18  H    3.759217   3.287525   4.440662   4.326982   5.362009
    19  C    4.302000   2.666161   4.243179   4.083780   3.956911
    20  N    4.355356   2.994811   4.327710   3.432029   2.694764
    21  H    5.314296   3.652091   5.292578   4.967051   4.765513
    22  H    4.192859   1.912927   3.623706   4.581919   4.410265
    23  H    3.831899   4.332630   5.015801   1.753610   2.629615
                   16         17         18         19         20
    16  C    0.000000
    17  H    1.092472   0.000000
    18  H    1.094719   1.780715   0.000000
    19  C    1.615665   2.191832   2.172744   0.000000
    20  N    2.370297   2.708372   3.268569   1.373665   0.000000
    21  H    2.165904   2.327007   2.500162   1.106346   2.077059
    22  H    2.197777   3.050460   2.347778   1.105755   2.119146
    23  H    2.659932   2.484597   3.723607   3.133240   2.417176
                   21         22         23
    21  H    0.000000
    22  H    1.817011   0.000000
    23  H    3.745160   3.978696   0.000000
 Symmetry turned off by external request.
 Stoichiometry    C8H13NO
 Framework group  C1[X(C8H13NO)]
 Deg. of freedom    63
 Full point group                 C1      NOp   1
 Rotational constants (GHZ):           1.7569539           1.4036225           1.1237708
 Standard basis: 6-31+G(d,p) (6D, 7F)
   255 basis functions,   411 primitive gaussians,   255 cartesian basis functions
    38 alpha electrons       38 beta electrons
       nuclear repulsion energy       565.6354235995 Hartrees.
 NAtoms=   23 NActive=   23 NUniq=   23 SFac= 1.00D+00 NAtFMM=   60 NAOKFM=F Big=F
 Integral buffers will be    131072 words long.
 Raffenetti 2 integral format.
 Two-electron integral symmetry is turned off.
 One-electron integrals computed using PRISM.
 NBasis=   255 RedAO= T EigKep=  1.62D-05  NBF=   255
 NBsUse=   255 1.00D-06 EigRej= -1.00D+00 NBFU=   255
 Initial guess from the checkpoint file:  "/scratch/Grace/g03/Gau-68257.chk"
 B after Tr=    -0.094182    0.084614    0.000768
         Rot=    1.000000    0.000006   -0.000019    0.000009 Ang=   0.00 deg.
 ExpMin= 4.38D-02 ExpMax= 5.48D+03 ExpMxC= 8.25D+02 IAcc=2 IRadAn=         4 AccDes= 0.00D+00
 Harris functional with IExCor=  402 and IRadAn=       4 diagonalized for initial guess.
 HarFok:  IExCor=  402 AccDes= 0.00D+00 IRadAn=         4 IDoV= 1 UseB2=F ITyADJ=14
 ICtDFT=  3500011 ScaDFX=  1.000000  1.000000  1.000000  1.000000
 FoFCou: FMM=F IPFlag=           0 FMFlag=      100000 FMFlg1=           0
         NFxFlg=           0 DoJE=T BraDBF=F KetDBF=T FulRan=T
         wScrn=  0.000000 ICntrl=       500 IOpCl=  0 I1Cent=   200000004 NGrid=           0
         NMat0=    1 NMatS0=      1 NMatT0=    0 NMatD0=    1 NMtDS0=    0 NMtDT0=    0
 Symmetry not used in FoFCou.
 Requested convergence on RMS density matrix=1.00D-08 within 128 cycles.
 Requested convergence on MAX density matrix=1.00D-06.
 Requested convergence on             energy=1.00D-06.
 No special actions if energy rises.
 SCF Done:  E(RB3LYP) =  -442.511972418     A.U. after   14 cycles
            NFock= 14  Conv=0.65D-08     -V/T= 2.0096
 DoSCS=F DFT=T ScalE2(SS,OS)=  1.000000  1.000000
 Range of M.O.s used for correlation:     1   255
 NBasis=   255 NAE=    38 NBE=    38 NFC=     0 NFV=     0
 NROrb=    255 NOA=    38 NOB=    38 NVA=   217 NVB=   217

 **** Warning!!: The largest alpha MO coefficient is  0.47322366D+02


 **** Warning!!: The smallest alpha delta epsilon is  0.76389967D-01

 Symmetrizing basis deriv contribution to polar:
 IMax=3 JMax=2 DiffMx= 0.00D+00
 G2DrvN: will do    24 centers at a time, making    1 passes.
 Calling FoFCou, ICntrl=  3107 FMM=F I1Cent=   0 AccDes= 0.00D+00.
 End of G2Drv F.D. properties file   721 does not exist.
 End of G2Drv F.D. properties file   722 does not exist.
 End of G2Drv F.D. properties file   788 does not exist.
          IDoAtm=11111111111111111111111
          Differentiating once with respect to nuclear coordinates.
 CalDSu exits because no D1Ps are significant.
          There are    72 degrees of freedom in the 1st order CPHF.  IDoFFX=6 NUNeed=     0.
     66 vectors produced by pass  0 Test12= 1.15D-14 1.39D-09 XBig12= 2.69D-01 2.23D-01.
 AX will form    48 AO Fock derivatives at one time.
     66 vectors produced by pass  1 Test12= 1.15D-14 1.39D-09 XBig12= 5.54D-02 3.29D-02.
     66 vectors produced by pass  2 Test12= 1.15D-14 1.39D-09 XBig12= 6.48D-04 4.15D-03.
     66 vectors produced by pass  3 Test12= 1.15D-14 1.39D-09 XBig12= 2.20D-06 1.92D-04.
     66 vectors produced by pass  4 Test12= 1.15D-14 1.39D-09 XBig12= 3.18D-09 5.64D-06.
     57 vectors produced by pass  5 Test12= 1.15D-14 1.39D-09 XBig12= 2.79D-12 1.53D-07.
      7 vectors produced by pass  6 Test12= 1.15D-14 1.39D-09 XBig12= 2.42D-15 5.24D-09.
 InvSVY:  IOpt=1 It=  1 EMax= 7.22D-16
 Solved reduced A of dimension   394 with    72 vectors.
 End of Minotr F.D. properties file   721 does not exist.
 End of Minotr F.D. properties file   722 does not exist.
 End of Minotr F.D. properties file   788 does not exist.
 Calling FoFJK, ICntrl=    100127 FMM=F ISym2X=0 I1Cent= 0 IOpClX= 0 NMat=1 NMatS=1 NMatT=0.
 -------------------------------------------------------------------
 Center     Atomic                   Forces (Hartrees/Bohr)
 Number     Number              X              Y              Z
 -------------------------------------------------------------------
      1        6           0.000191899    0.000026356    0.000234972
      2        6           0.000347471    0.000753414    0.001015497
      3        6           0.000541215    0.000079726    0.000177136
      4        6           0.000144997    0.000157869   -0.000079490
      5        6          -0.000049241    0.000089235   -0.000075155
      6        6           0.000222001   -0.000174059   -0.000097523
      7        1           0.000001519    0.000031843   -0.000031436
      8        1          -0.000016905    0.000002317    0.000009095
      9        1           0.000011882   -0.000054143    0.000002266
     10        1           0.000005660    0.000011320    0.000036943
     11        1          -0.000012147    0.000007448    0.000015146
     12        1          -0.000042242   -0.000064948   -0.000025911
     13        1          -0.000029222    0.000012557    0.000011521
     14        1          -0.000032731   -0.000020340    0.000027144
     15        8           0.000191178    0.000136126    0.000029586
     16        6           0.000188143   -0.000100988    0.000164846
     17        1           0.000051373   -0.000008450   -0.000011592
     18        1           0.000017944   -0.000033560   -0.000023727
     19        6          -0.000597518   -0.000345606   -0.000670248
     20        7          -0.001007584   -0.000530714   -0.000640661
     21        1          -0.000105367    0.000063967   -0.000004129
     22        1          -0.000085916   -0.000042696    0.000029584
     23        1           0.000063592    0.000003325   -0.000093865
 -------------------------------------------------------------------
 Cartesian Forces:  Max     0.001015497 RMS     0.000272471
 IRC-IRC-IRC-IRC-IRC-IRC-IRC-IRC-IRC-IRC-IRC-IRC-IRC-IRC-IRC-IRC-IRC-IRC
 Pt  1 Step number   1 out of a maximum of 100
 Point Number:   1          Path Number:   1
   CHANGE IN THE REACTION COORDINATE =    0.12723
   NET REACTION COORDINATE UP TO THIS POINT =    0.12723
  # OF POINTS ALONG THE PATH =   1
  # OF STEPS =   1

 Calculating another point on the path.
 IRC-IRC-IRC-IRC-IRC-IRC-IRC-IRC-IRC-IRC-IRC-IRC-IRC-IRC-IRC-IRC-IRC-IRC
                          Input orientation:                          
 ---------------------------------------------------------------------
 Center     Atomic      Atomic             Coordinates (Angstroms)
 Number     Number       Type             X           Y           Z
 ---------------------------------------------------------------------
      1          6           0        1.416820    0.977210   -0.634365
      2          6           0        1.319260   -0.329635    0.154291
      3          6           0        0.226750   -0.348056    1.302767
      4          6           0       -1.076488    0.397372    1.014493
      5          6           0       -0.802361    1.775273    0.372708
      6          6           0        0.104151    1.737546   -0.870217
      7          1           0        2.101624    1.597014   -0.035802
      8          1           0        1.938321    0.767941   -1.572679
      9          1           0       -1.574361    0.583633    1.979252
     10          1           0       -1.754199    2.263397    0.126523
     11          1           0       -0.324199    2.404871    1.135917
     12          1           0       -0.430475    1.303253   -1.719125
     13          1           0        0.338538    2.767013   -1.167865
     14          1           0        0.792516    0.151921    2.103386
     15          8           0        2.296315   -1.046869    0.306526
     16          6           0       -2.032737   -0.513401    0.251920
     17          1           0       -2.297131   -1.376047    0.867607
     18          1           0       -2.949363   -0.004286   -0.062665
     19          6           0       -1.403401   -1.105541   -1.116768
     20          7           0       -0.145300   -1.517744   -0.761032
     21          1           0       -2.085172   -1.936487   -1.379992
     22          1           0       -1.476383   -0.293163   -1.863611
     23          1           0        0.061572   -1.374257    1.644598
 ---------------------------------------------------------------------
                    Distance matrix (angstroms):
                    1          2          3          4          5
     1  C    0.000000
     2  C    1.529489   0.000000
     3  C    2.631554   1.585218   0.000000
     4  C    3.044919   2.647281   1.528789   0.000000
     5  C    2.564345   2.996601   2.536259   1.544553   0.000000
     6  C    1.535199   2.607554   3.014403   2.596556   1.538847
     7  H    1.100632   2.088110   3.014999   3.555651   2.937990
     8  H    1.093705   2.137834   3.527480   3.989969   3.508645
     9  H    3.991624   3.540845   2.137680   1.101513   2.144055
    10  H    3.505508   4.021285   3.482441   2.174817   1.097664
    11  H    2.864134   3.337974   2.812470   2.147262   1.098873
    12  H    2.166912   3.039339   3.505795   2.951376   2.176434
    13  H    2.156550   3.507013   3.977458   3.518548   2.158371
    14  H    2.926796   2.075651   1.100481   2.176950   2.859048
    15  O    2.399100   1.221571   2.400820   3.736690   4.191737
    16  C    3.860941   3.358450   2.497379   1.524938   2.601239
    17  H    4.646200   3.831721   2.759730   2.157907   3.522795
    18  H    4.511510   4.286498   3.474230   2.197557   2.822409
    19  C    3.538956   3.103306   3.014188   2.628287   3.298314
    20  N    2.946363   2.096272   2.401220   2.772593   3.544158
    21  H    4.616225   4.065237   3.881404   3.492549   4.300549
    22  H    3.390504   3.448025   3.595779   2.986676   3.119913
    23  H    3.543975   2.212245   1.094175   2.197927   3.504800
                    6          7          8          9         10
     6  C    0.000000
     7  H    2.169307   0.000000
     8  H    2.190380   1.753859   0.000000
     9  H    3.502626   4.312800   4.998912   0.000000
    10  H    2.173355   3.916348   4.331094   2.507300   0.000000
    11  H    2.157169   2.812503   3.890377   2.364535   1.756073
    12  H    1.093197   3.054733   2.432940   3.937553   2.465874
    13  H    1.096966   2.399778   2.592194   4.281434   2.511696
    14  H    3.439530   2.894509   3.899462   2.409126   3.853839
    15  O    3.734069   2.673052   2.636875   4.520916   5.234207
    16  C    3.300340   4.650761   4.554152   2.096967   2.793549
    17  H    4.298912   5.385563   5.337671   2.366115   3.753603
    18  H    3.606946   5.298806   5.173580   2.530949   2.570330
    19  C    3.227482   4.556039   3.858095   3.530988   3.608126
    20  N    3.266658   3.908496   3.197593   3.737266   4.203967
    21  H    4.307148   5.641075   4.851757   4.230420   4.474165
    22  H    2.758387   4.440246   3.587588   3.942837   3.251740
    23  H    4.001177   3.976682   4.296751   2.573247   4.339827
                   11         12         13         14         15
    11  H    0.000000
    12  H    3.062046   0.000000
    13  H    2.424413   1.742947   0.000000
    14  H    2.694221   4.175268   4.212586   0.000000
    15  O    4.412424   4.130584   4.533477   2.631960   0.000000
    16  C    3.495263   3.122898   4.289505   3.442766   4.362140
    17  H    4.273148   4.165842   5.315529   3.661660   4.639280
    18  H    3.759271   3.286079   4.439804   4.326411   5.361009
    19  C    4.308394   2.666778   4.246603   4.095443   3.964481
    20  N    4.360886   2.992873   4.331138   3.445601   2.706083
    21  H    5.317726   3.653621   5.295496   4.977595   4.778409
    22  H    4.195722   1.913987   3.625284   4.591630   4.417105
    23  H    3.832672   4.327332   5.013658   1.753278   2.625204
                   16         17         18         19         20
    16  C    0.000000
    17  H    1.092307   0.000000
    18  H    1.094698   1.781163   0.000000
    19  C    1.618641   2.193096   2.171150   0.000000
    20  N    2.365839   2.702392   3.262061   1.370868   0.000000
    21  H    2.165885   2.326096   2.493106   1.106603   2.078836
    22  H    2.198523   3.050543   2.344467   1.105919   2.118268
    23  H    2.658337   2.483384   3.722539   3.137435   2.418768
                   21         22         23
    21  H    0.000000
    22  H    1.817972   0.000000
    23  H    3.751367   3.980150   0.000000
 Symmetry turned off by external request.
 Stoichiometry    C8H13NO
 Framework group  C1[X(C8H13NO)]
 Deg. of freedom    63
 Full point group                 C1      NOp   1
 Rotational constants (GHZ):           1.7535913           1.4013186           1.1223527
 Standard basis: 6-31+G(d,p) (6D, 7F)
   255 basis functions,   411 primitive gaussians,   255 cartesian basis functions
    38 alpha electrons       38 beta electrons
       nuclear repulsion energy       565.3342332719 Hartrees.
 NAtoms=   23 NActive=   23 NUniq=   23 SFac= 1.00D+00 NAtFMM=   60 NAOKFM=F Big=F
 Integral buffers will be    131072 words long.
 Raffenetti 2 integral format.
 Two-electron integral symmetry is turned off.
 One-electron integrals computed using PRISM.
 NBasis=   255 RedAO= T EigKep=  1.63D-05  NBF=   255
 NBsUse=   255 1.00D-06 EigRej= -1.00D+00 NBFU=   255
 Initial guess from the checkpoint file:  "/scratch/Grace/g03/Gau-68257.chk"
 B after Tr=    -0.000139   -0.000068   -0.000040
         Rot=    1.000000   -0.000001   -0.000029    0.000003 Ang=  -0.00 deg.
 ExpMin= 4.38D-02 ExpMax= 5.48D+03 ExpMxC= 8.25D+02 IAcc=2 IRadAn=         4 AccDes= 0.00D+00
 Harris functional with IExCor=  402 and IRadAn=       4 diagonalized for initial guess.
 HarFok:  IExCor=  402 AccDes= 0.00D+00 IRadAn=         4 IDoV= 1 UseB2=F ITyADJ=14
 ICtDFT=  3500011 ScaDFX=  1.000000  1.000000  1.000000  1.000000
 FoFCou: FMM=F IPFlag=           0 FMFlag=      100000 FMFlg1=           0
         NFxFlg=           0 DoJE=T BraDBF=F KetDBF=T FulRan=T
         wScrn=  0.000000 ICntrl=       500 IOpCl=  0 I1Cent=   200000004 NGrid=           0
         NMat0=    1 NMatS0=      1 NMatT0=    0 NMatD0=    1 NMtDS0=    0 NMtDT0=    0
 Symmetry not used in FoFCou.
 Requested convergence on RMS density matrix=1.00D-08 within 128 cycles.
 Requested convergence on MAX density matrix=1.00D-06.
 Requested convergence on             energy=1.00D-06.
 No special actions if energy rises.
 SCF Done:  E(RB3LYP) =  -442.512090153     A.U. after   14 cycles
            NFock= 14  Conv=0.51D-08     -V/T= 2.0096
 DoSCS=F DFT=T ScalE2(SS,OS)=  1.000000  1.000000
 Range of M.O.s used for correlation:     1   255
 NBasis=   255 NAE=    38 NBE=    38 NFC=     0 NFV=     0
 NROrb=    255 NOA=    38 NOB=    38 NVA=   217 NVB=   217

 **** Warning!!: The largest alpha MO coefficient is  0.49050139D+02


 **** Warning!!: The smallest alpha delta epsilon is  0.76132894D-01

 Symmetrizing basis deriv contribution to polar:
 IMax=3 JMax=2 DiffMx= 0.00D+00
 G2DrvN: will do    24 centers at a time, making    1 passes.
 Calling FoFCou, ICntrl=  3107 FMM=F I1Cent=   0 AccDes= 0.00D+00.
 End of G2Drv F.D. properties file   721 does not exist.
 End of G2Drv F.D. properties file   722 does not exist.
 End of G2Drv F.D. properties file   788 does not exist.
          IDoAtm=11111111111111111111111
          Differentiating once with respect to nuclear coordinates.
 CalDSu exits because no D1Ps are significant.
          There are    72 degrees of freedom in the 1st order CPHF.  IDoFFX=6 NUNeed=     0.
     66 vectors produced by pass  0 Test12= 1.15D-14 1.39D-09 XBig12= 2.59D-01 2.24D-01.
 AX will form    48 AO Fock derivatives at one time.
     66 vectors produced by pass  1 Test12= 1.15D-14 1.39D-09 XBig12= 5.49D-02 3.28D-02.
     66 vectors produced by pass  2 Test12= 1.15D-14 1.39D-09 XBig12= 6.26D-04 4.09D-03.
     66 vectors produced by pass  3 Test12= 1.15D-14 1.39D-09 XBig12= 2.18D-06 1.90D-04.
     66 vectors produced by pass  4 Test12= 1.15D-14 1.39D-09 XBig12= 3.17D-09 5.72D-06.
     57 vectors produced by pass  5 Test12= 1.15D-14 1.39D-09 XBig12= 2.76D-12 1.51D-07.
      7 vectors produced by pass  6 Test12= 1.15D-14 1.39D-09 XBig12= 2.41D-15 5.31D-09.
 InvSVY:  IOpt=1 It=  1 EMax= 8.33D-16
 Solved reduced A of dimension   394 with    72 vectors.
 End of Minotr F.D. properties file   721 does not exist.
 End of Minotr F.D. properties file   722 does not exist.
 End of Minotr F.D. properties file   788 does not exist.
 Calling FoFJK, ICntrl=    100127 FMM=F ISym2X=0 I1Cent= 0 IOpClX= 0 NMat=1 NMatS=1 NMatT=0.
 -------------------------------------------------------------------
 Center     Atomic                   Forces (Hartrees/Bohr)
 Number     Number              X              Y              Z
 -------------------------------------------------------------------
      1        6           0.000304060    0.000221392    0.000243224
      2        6           0.000969369    0.001227970    0.001781921
      3        6           0.000754525    0.000395479    0.000352884
      4        6           0.000390020   -0.000020279   -0.000049862
      5        6           0.000065884   -0.000019107   -0.000088845
      6        6           0.000086318   -0.000130635   -0.000047009
      7        1           0.000023808    0.000085350   -0.000059128
      8        1           0.000006274   -0.000051648    0.000029753
      9        1           0.000007650   -0.000007820   -0.000016787
     10        1           0.000000438   -0.000013592   -0.000011801
     11        1          -0.000003405    0.000007957   -0.000009810
     12        1           0.000015945   -0.000049072    0.000011839
     13        1          -0.000016697   -0.000015783   -0.000033573
     14        1          -0.000090148   -0.000029851    0.000130112
     15        8           0.000355953    0.000215973    0.000078525
     16        6           0.000443450   -0.000230535    0.000133275
     17        1           0.000056137   -0.000028393    0.000001799
     18        1           0.000035093   -0.000029200    0.000005323
     19        6          -0.001106217   -0.000624868   -0.001119740
     20        7          -0.002059887   -0.000962375   -0.001198687
     21        1          -0.000210692    0.000050259   -0.000022166
     22        1          -0.000097285   -0.000000483   -0.000034707
     23        1           0.000069408    0.000009260   -0.000076542
 -------------------------------------------------------------------
 Cartesian Forces:  Max     0.002059887 RMS     0.000495054
 IRC-IRC-IRC-IRC-IRC-IRC-IRC-IRC-IRC-IRC-IRC-IRC-IRC-IRC-IRC-IRC-IRC-IRC
 Pt  2 Step number   1 out of a maximum of 100
 Point Number:   2          Path Number:   1
   CHANGE IN THE REACTION COORDINATE =    0.12696
   NET REACTION COORDINATE UP TO THIS POINT =    0.25419
  # OF POINTS ALONG THE PATH =   2
  # OF STEPS =   1

 Calculating another point on the path.
 IRC-IRC-IRC-IRC-IRC-IRC-IRC-IRC-IRC-IRC-IRC-IRC-IRC-IRC-IRC-IRC-IRC-IRC
                          Input orientation:                          
 ---------------------------------------------------------------------
 Center     Atomic      Atomic             Coordinates (Angstroms)
 Number     Number       Type             X           Y           Z
 ---------------------------------------------------------------------
      1          6           0        1.418228    0.978220   -0.633339
      2          6           0        1.323700   -0.323862    0.162712
      3          6           0        0.230273   -0.346195    1.304284
      4          6           0       -1.074677    0.397218    1.014290
      5          6           0       -0.802054    1.775129    0.372289
      6          6           0        0.104564    1.736961   -0.870416
      7          1           0        2.103251    1.601800   -0.038753
      8          1           0        1.938716    0.765283   -1.571356
      9          1           0       -1.574176    0.583258    1.978237
     10          1           0       -1.754208    2.262563    0.125838
     11          1           0       -0.324434    2.405284    1.135386
     12          1           0       -0.429597    1.300560   -1.718575
     13          1           0        0.337641    2.766251   -1.169673
     14          1           0        0.788547    0.151342    2.111855
     15          8           0        2.297630   -1.046155    0.306798
     16          6           0       -2.030665   -0.514495    0.252493
     17          1           0       -2.293996   -1.377681    0.867644
     18          1           0       -2.947447   -0.005819   -0.062305
     19          6           0       -1.408408   -1.108374   -1.121972
     20          7           0       -0.153679   -1.521564   -0.765802
     21          1           0       -2.097649   -1.934667   -1.381555
     22          1           0       -1.481779   -0.292980   -1.865849
     23          1           0        0.065201   -1.374292    1.640973
 ---------------------------------------------------------------------
                    Distance matrix (angstroms):
                    1          2          3          4          5
     1  C    0.000000
     2  C    1.529069   0.000000
     3  C    2.630532   1.580908   0.000000
     4  C    3.044145   2.645252   1.529593   0.000000
     5  C    2.564372   2.994749   2.536598   1.544386   0.000000
     6  C    1.535449   2.607803   3.014077   2.595696   1.538743
     7  H    1.100745   2.087214   3.017694   3.557969   2.939352
     8  H    1.093675   2.138100   3.524694   3.987678   3.508470
     9  H    3.991342   3.537894   2.138723   1.101501   2.143782
    10  H    3.505743   4.020507   3.483177   2.174999   1.097692
    11  H    2.863873   3.333269   2.811915   2.147058   1.098878
    12  H    2.167047   3.041717   3.504984   2.949696   2.176156
    13  H    2.156937   3.506617   3.977350   3.518047   2.158442
    14  H    2.935357   2.076384   1.100628   2.176398   2.862304
    15  O    2.399021   1.221067   2.399767   3.735816   4.191893
    16  C    3.861057   3.360978   2.499287   1.524949   2.601195
    17  H    4.645840   3.833431   2.761622   2.158359   3.522993
    18  H    4.511489   4.288880   3.475821   2.197445   2.821943
    19  C    3.547183   3.119341   3.025378   2.634730   3.303796
    20  N    2.955902   2.116430   2.411259   2.774652   3.547369
    21  H    4.626676   4.084738   3.893096   3.496318   4.303153
    22  H    3.397803   3.462185   3.603290   2.989533   3.122237
    23  H    3.540832   2.207369   1.094345   2.197795   3.504360
                    6          7          8          9         10
     6  C    0.000000
     7  H    2.169027   0.000000
     8  H    2.190796   1.753768   0.000000
     9  H    3.502003   4.316150   4.997315   0.000000
    10  H    2.173434   3.917102   4.331282   2.506763   0.000000
    11  H    2.157298   2.813866   3.890745   2.364748   1.756078
    12  H    1.093228   3.054155   2.432510   3.935862   2.466152
    13  H    1.096959   2.398396   2.593967   4.281337   2.511550
    14  H    3.446152   2.908159   3.907154   2.405590   3.855790
    15  O    3.733779   2.677472   2.633931   4.521015   5.234286
    16  C    3.299876   4.653256   4.551950   2.095623   2.793657
    17  H    4.298248   5.388380   5.334498   2.365764   3.754068
    18  H    3.606258   5.300429   5.171695   2.529170   2.569976
    19  C    3.232382   4.566196   3.862095   3.535589   3.611069
    20  N    3.270415   3.921445   3.202609   3.738695   4.204323
    21  H    4.311827   5.653076   4.859836   4.231096   4.472910
    22  H    2.761889   4.447573   3.592553   3.943771   3.251436
    23  H    3.998564   3.978976   4.290326   2.575521   4.339654
                   11         12         13         14         15
    11  H    0.000000
    12  H    3.062118   0.000000
    13  H    2.425270   1.743043   0.000000
    14  H    2.696753   4.180523   4.220130   0.000000
    15  O    4.412959   4.128798   4.533869   2.639992   0.000000
    16  C    3.495116   3.121370   4.288907   3.442168   4.361164
    17  H    4.273370   4.163831   5.314918   3.658968   4.637616
    18  H    3.758734   3.284726   4.438743   4.325428   5.359979
    19  C    4.314679   2.667765   4.250139   4.107448   3.972401
    20  N    4.366212   2.991369   4.334728   3.459380   2.717609
    21  H    5.321133   3.655499   5.298506   4.988534   4.791499
    22  H    4.198510   1.915240   3.626823   4.601514   4.423980
    23  H    3.833097   4.322756   5.011791   1.752860   2.621341
                   16         17         18         19         20
    16  C    0.000000
    17  H    1.092174   0.000000
    18  H    1.094686   1.781519   0.000000
    19  C    1.621434   2.194394   2.169599   0.000000
    20  N    2.360972   2.696258   3.255385   1.368184   0.000000
    21  H    2.165984   2.325442   2.486570   1.106886   2.080583
    22  H    2.199481   3.050944   2.341669   1.106166   2.117398
    23  H    2.657025   2.482712   3.721549   3.142626   2.421190
                   21         22         23
    21  H    0.000000
    22  H    1.819058   0.000000
    23  H    3.758672   3.982484   0.000000
 Symmetry turned off by external request.
 Stoichiometry    C8H13NO
 Framework group  C1[X(C8H13NO)]
 Deg. of freedom    63
 Full point group                 C1      NOp   1
 Rotational constants (GHZ):           1.7501829           1.3988633           1.1208945
 Standard basis: 6-31+G(d,p) (6D, 7F)
   255 basis functions,   411 primitive gaussians,   255 cartesian basis functions
    38 alpha electrons       38 beta electrons
       nuclear repulsion energy       565.0212376822 Hartrees.
 NAtoms=   23 NActive=   23 NUniq=   23 SFac= 1.00D+00 NAtFMM=   60 NAOKFM=F Big=F
 Integral buffers will be    131072 words long.
 Raffenetti 2 integral format.
 Two-electron integral symmetry is turned off.
 One-electron integrals computed using PRISM.
 NBasis=   255 RedAO= T EigKep=  1.64D-05  NBF=   255
 NBsUse=   255 1.00D-06 EigRej= -1.00D+00 NBFU=   255
 Initial guess from the checkpoint file:  "/scratch/Grace/g03/Gau-68257.chk"
 B after Tr=    -0.000139   -0.000049   -0.000048
         Rot=    1.000000    0.000006   -0.000022    0.000004 Ang=   0.00 deg.
 ExpMin= 4.38D-02 ExpMax= 5.48D+03 ExpMxC= 8.25D+02 IAcc=2 IRadAn=         4 AccDes= 0.00D+00
 Harris functional with IExCor=  402 and IRadAn=       4 diagonalized for initial guess.
 HarFok:  IExCor=  402 AccDes= 0.00D+00 IRadAn=         4 IDoV= 1 UseB2=F ITyADJ=14
 ICtDFT=  3500011 ScaDFX=  1.000000  1.000000  1.000000  1.000000
 FoFCou: FMM=F IPFlag=           0 FMFlag=      100000 FMFlg1=           0
         NFxFlg=           0 DoJE=T BraDBF=F KetDBF=T FulRan=T
         wScrn=  0.000000 ICntrl=       500 IOpCl=  0 I1Cent=   200000004 NGrid=           0
         NMat0=    1 NMatS0=      1 NMatT0=    0 NMatD0=    1 NMtDS0=    0 NMtDT0=    0
 Symmetry not used in FoFCou.
 Requested convergence on RMS density matrix=1.00D-08 within 128 cycles.
 Requested convergence on MAX density matrix=1.00D-06.
 Requested convergence on             energy=1.00D-06.
 No special actions if energy rises.
 SCF Done:  E(RB3LYP) =  -442.512274462     A.U. after   14 cycles
            NFock= 14  Conv=0.46D-08     -V/T= 2.0096
 DoSCS=F DFT=T ScalE2(SS,OS)=  1.000000  1.000000
 Range of M.O.s used for correlation:     1   255
 NBasis=   255 NAE=    38 NBE=    38 NFC=     0 NFV=     0
 NROrb=    255 NOA=    38 NOB=    38 NVA=   217 NVB=   217

 **** Warning!!: The largest alpha MO coefficient is  0.51024819D+02


 **** Warning!!: The smallest alpha delta epsilon is  0.75963581D-01

 Symmetrizing basis deriv contribution to polar:
 IMax=3 JMax=2 DiffMx= 0.00D+00
 G2DrvN: will do    24 centers at a time, making    1 passes.
 Calling FoFCou, ICntrl=  3107 FMM=F I1Cent=   0 AccDes= 0.00D+00.
 End of G2Drv F.D. properties file   721 does not exist.
 End of G2Drv F.D. properties file   722 does not exist.
 End of G2Drv F.D. properties file   788 does not exist.
          IDoAtm=11111111111111111111111
          Differentiating once with respect to nuclear coordinates.
 CalDSu exits because no D1Ps are significant.
          There are    72 degrees of freedom in the 1st order CPHF.  IDoFFX=6 NUNeed=     0.
     66 vectors produced by pass  0 Test12= 1.15D-14 1.39D-09 XBig12= 2.51D-01 2.25D-01.
 AX will form    48 AO Fock derivatives at one time.
     66 vectors produced by pass  1 Test12= 1.15D-14 1.39D-09 XBig12= 5.44D-02 3.25D-02.
     66 vectors produced by pass  2 Test12= 1.15D-14 1.39D-09 XBig12= 6.05D-04 4.03D-03.
     66 vectors produced by pass  3 Test12= 1.15D-14 1.39D-09 XBig12= 2.16D-06 1.86D-04.
     66 vectors produced by pass  4 Test12= 1.15D-14 1.39D-09 XBig12= 3.17D-09 5.76D-06.
     57 vectors produced by pass  5 Test12= 1.15D-14 1.39D-09 XBig12= 2.74D-12 1.53D-07.
      7 vectors produced by pass  6 Test12= 1.15D-14 1.39D-09 XBig12= 2.39D-15 5.34D-09.
 InvSVY:  IOpt=1 It=  1 EMax= 6.66D-16
 Solved reduced A of dimension   394 with    72 vectors.
 End of Minotr F.D. properties file   721 does not exist.
 End of Minotr F.D. properties file   722 does not exist.
 End of Minotr F.D. properties file   788 does not exist.
 Calling FoFJK, ICntrl=    100127 FMM=F ISym2X=0 I1Cent= 0 IOpClX= 0 NMat=1 NMatS=1 NMatT=0.
 -------------------------------------------------------------------
 Center     Atomic                   Forces (Hartrees/Bohr)
 Number     Number              X              Y              Z
 -------------------------------------------------------------------
      1        6           0.000436828    0.000316313    0.000324555
      2        6           0.001348726    0.001706802    0.002477387
      3        6           0.001073788    0.000584984    0.000545862
      4        6           0.000555990   -0.000054164   -0.000067143
      5        6           0.000091083   -0.000053659   -0.000128996
      6        6           0.000128991   -0.000172658   -0.000060782
      7        1           0.000037881    0.000119473   -0.000083712
      8        1           0.000007211   -0.000071606    0.000038642
      9        1           0.000007089   -0.000011719   -0.000025841
     10        1          -0.000000251   -0.000023145   -0.000017804
     11        1          -0.000007091    0.000009827   -0.000013617
     12        1           0.000023635   -0.000066969    0.000014993
     13        1          -0.000023277   -0.000019824   -0.000044381
     14        1          -0.000116198   -0.000025472    0.000191351
     15        8           0.000521544    0.000306826    0.000123626
     16        6           0.000647007   -0.000346325    0.000162640
     17        1           0.000079630   -0.000042585   -0.000000621
     18        1           0.000051220   -0.000040140    0.000007586
     19        6          -0.001571264   -0.000858281   -0.001622707
     20        7          -0.002952837   -0.001335537   -0.001632111
     21        1          -0.000302953    0.000064444   -0.000040489
     22        1          -0.000136926    0.000002149   -0.000055133
     23        1           0.000100175    0.000011266   -0.000093305
 -------------------------------------------------------------------
 Cartesian Forces:  Max     0.002952837 RMS     0.000698305
 IRC-IRC-IRC-IRC-IRC-IRC-IRC-IRC-IRC-IRC-IRC-IRC-IRC-IRC-IRC-IRC-IRC-IRC
 Pt  3 Step number   1 out of a maximum of 100
 Point Number:   3          Path Number:   1
   CHANGE IN THE REACTION COORDINATE =    0.12719
   NET REACTION COORDINATE UP TO THIS POINT =    0.38137
  # OF POINTS ALONG THE PATH =   3
  # OF STEPS =   1

 Calculating another point on the path.
 IRC-IRC-IRC-IRC-IRC-IRC-IRC-IRC-IRC-IRC-IRC-IRC-IRC-IRC-IRC-IRC-IRC-IRC
                          Input orientation:                          
 ---------------------------------------------------------------------
 Center     Atomic      Atomic             Coordinates (Angstroms)
 Number     Number       Type             X           Y           Z
 ---------------------------------------------------------------------
      1          6           0        1.419662    0.979251   -0.632305
      2          6           0        1.328094   -0.318206    0.170941
      3          6           0        0.233834   -0.344243    1.306028
      4          6           0       -1.072827    0.397007    1.014086
      5          6           0       -0.801750    1.774929    0.371857
      6          6           0        0.105004    1.736391   -0.870605
      7          1           0        2.104955    1.606559   -0.041776
      8          1           0        1.939067    0.762580   -1.570036
      9          1           0       -1.574034    0.582832    1.977177
     10          1           0       -1.754243    2.261612    0.125114
     11          1           0       -0.324737    2.405671    1.134854
     12          1           0       -0.428660    1.297903   -1.718039
     13          1           0        0.336747    2.765522   -1.171417
     14          1           0        0.784680    0.151046    2.120227
     15          8           0        2.298958   -1.045402    0.307108
     16          6           0       -2.028495   -0.515670    0.253008
     17          1           0       -2.290789   -1.379418    0.867578
     18          1           0       -2.945431   -0.007388   -0.061947
     19          6           0       -1.413532   -1.111175   -1.127371
     20          7           0       -0.162156   -1.525315   -0.770400
     21          1           0       -2.110124   -1.932759   -1.383400
     22          1           0       -1.487199   -0.292747   -1.868227
     23          1           0        0.069031   -1.374182    1.637671
 ---------------------------------------------------------------------
                    Distance matrix (angstroms):
                    1          2          3          4          5
     1  C    0.000000
     2  C    1.528719   0.000000
     3  C    2.629631   1.576866   0.000000
     4  C    3.043372   2.643264   1.530374   0.000000
     5  C    2.564394   2.992961   2.536927   1.544217   0.000000
     6  C    1.535700   2.608090   3.013863   2.594859   1.538636
     7  H    1.100848   2.086499   3.020479   3.560359   2.940812
     8  H    1.093648   2.138313   3.522019   3.985327   3.508258
     9  H    3.991086   3.535068   2.139695   1.101492   2.143495
    10  H    3.505968   4.019746   3.483890   2.175167   1.097719
    11  H    2.863644   3.328736   2.811286   2.146848   1.098882
    12  H    2.167176   3.044050   3.504358   2.948062   2.175872
    13  H    2.157339   3.506290   3.977306   3.517553   2.158505
    14  H    2.943732   2.077309   1.100755   2.175862   2.865406
    15  O    2.398933   1.220628   2.398792   3.734875   4.191998
    16  C    3.861134   3.363394   2.501274   1.524965   2.601128
    17  H    4.645472   3.835074   2.763611   2.158838   3.523191
    18  H    4.511408   4.291138   3.477435   2.197278   2.821384
    19  C    3.555553   3.135431   3.037010   2.641312   3.309313
    20  N    2.965480   2.136371   2.421425   2.776515   3.550415
    21  H    4.637169   4.104157   3.905195   3.500248   4.305778
    22  H    3.405191   3.476310   3.611164   2.992523   3.124596
    23  H    3.537745   2.202640   1.094496   2.197683   3.503918
                    6          7          8          9         10
     6  C    0.000000
     7  H    2.168783   0.000000
     8  H    2.191187   1.753682   0.000000
     9  H    3.501390   4.319624   4.995689   0.000000
    10  H    2.173503   3.917953   4.331417   2.506175   0.000000
    11  H    2.157424   2.815393   3.891142   2.364952   1.756080
    12  H    1.093258   3.053577   2.431997   3.934188   2.466398
    13  H    1.096951   2.397049   2.595786   4.281222   2.511405
    14  H    3.452587   2.921626   3.914668   2.402173   3.857602
    15  O    3.733472   2.681838   2.630967   4.521100   5.234301
    16  C    3.299409   4.655766   4.549611   2.094277   2.793718
    17  H    4.297600   5.391247   5.331210   2.365453   3.754495
    18  H    3.605530   5.302040   5.169672   2.527274   2.569490
    19  C    3.237362   4.576499   3.866113   3.540288   3.613930
    20  N    3.274163   3.934377   3.207650   3.739902   4.204463
    21  H    4.316528   5.665123   4.867816   4.231911   4.471579
    22  H    2.765459   4.454981   3.597490   3.944783   3.251072
    23  H    3.996049   3.981249   4.283943   2.577757   4.339488
                   11         12         13         14         15
    11  H    0.000000
    12  H    3.062180   0.000000
    13  H    2.426095   1.743143   0.000000
    14  H    2.699092   4.185662   4.227416   0.000000
    15  O    4.413484   4.127009   4.534253   2.648005   0.000000
    16  C    3.494950   3.119863   4.288306   3.441652   4.360091
    17  H    4.273604   4.161849   5.314317   3.656495   4.635889
    18  H    3.758088   3.283377   4.437639   4.324432   5.358851
    19  C    4.321035   2.668805   4.253727   4.119737   3.980532
    20  N    4.371394   2.989918   4.338318   3.473099   2.729179
    21  H    5.324583   3.657388   5.301505   4.999754   4.804709
    22  H    4.201342   1.916567   3.628406   4.611524   4.430977
    23  H    3.833428   4.318394   5.009970   1.752522   2.617454
                   16         17         18         19         20
    16  C    0.000000
    17  H    1.092042   0.000000
    18  H    1.094677   1.781864   0.000000
    19  C    1.624270   2.195758   2.167992   0.000000
    20  N    2.355838   2.689859   3.248481   1.365608   0.000000
    21  H    2.166250   2.325023   2.480127   1.107155   2.082393
    22  H    2.200531   3.051432   2.338914   1.106399   2.116646
    23  H    2.655928   2.482302   3.720727   3.148432   2.423860
                   21         22         23
    21  H    0.000000
    22  H    1.820091   0.000000
    23  H    3.766643   3.985308   0.000000
 Symmetry turned off by external request.
 Stoichiometry    C8H13NO
 Framework group  C1[X(C8H13NO)]
 Deg. of freedom    63
 Full point group                 C1      NOp   1
 Rotational constants (GHZ):           1.7468005           1.3963417           1.1194321
 Standard basis: 6-31+G(d,p) (6D, 7F)
   255 basis functions,   411 primitive gaussians,   255 cartesian basis functions
    38 alpha electrons       38 beta electrons
       nuclear repulsion energy       564.7058225689 Hartrees.
 NAtoms=   23 NActive=   23 NUniq=   23 SFac= 1.00D+00 NAtFMM=   60 NAOKFM=F Big=F
 Integral buffers will be    131072 words long.
 Raffenetti 2 integral format.
 Two-electron integral symmetry is turned off.
 One-electron integrals computed using PRISM.
 NBasis=   255 RedAO= T EigKep=  1.66D-05  NBF=   255
 NBsUse=   255 1.00D-06 EigRej= -1.00D+00 NBFU=   255
 Initial guess from the checkpoint file:  "/scratch/Grace/g03/Gau-68257.chk"
 B after Tr=    -0.000134   -0.000046   -0.000053
         Rot=    1.000000    0.000007   -0.000020    0.000004 Ang=   0.00 deg.
 ExpMin= 4.38D-02 ExpMax= 5.48D+03 ExpMxC= 8.25D+02 IAcc=2 IRadAn=         4 AccDes= 0.00D+00
 Harris functional with IExCor=  402 and IRadAn=       4 diagonalized for initial guess.
 HarFok:  IExCor=  402 AccDes= 0.00D+00 IRadAn=         4 IDoV= 1 UseB2=F ITyADJ=14
 ICtDFT=  3500011 ScaDFX=  1.000000  1.000000  1.000000  1.000000
 FoFCou: FMM=F IPFlag=           0 FMFlag=      100000 FMFlg1=           0
[...]
     21          1           0       -2.857038   -1.352784   -1.899137
     22          1           0       -1.287613   -1.944323   -2.729895
     23          1           0        0.444035   -1.185912    1.901980
 ---------------------------------------------------------------------
                    Distance matrix (angstroms):
                    1          2          3          4          5
     1  C    0.000000
     2  C    1.522522   0.000000
     3  C    2.582713   1.523712   0.000000
     4  C    3.025486   2.593055   1.547606   0.000000
     5  C    2.551887   2.961003   2.544896   1.544267   0.000000
     6  C    1.540010   2.565047   2.992077   2.582515   1.537438
     7  H    1.101889   2.109794   2.920087   3.476870   2.871115
     8  H    1.093526   2.136586   3.488232   3.993735   3.508512
     9  H    3.956243   3.483737   2.148403   1.098767   2.143930
    10  H    3.499358   3.976356   3.493846   2.173925   1.097783
    11  H    2.839232   3.331488   2.833064   2.156310   1.099552
    12  H    2.158020   2.916043   3.422665   2.893946   2.170117
    13  H    2.167039   3.491016   3.975295   3.517326   2.167409
    14  H    2.911909   2.105729   1.100946   2.161079   2.858070
    15  O    2.402211   1.218725   2.400716   3.648368   4.162484
    16  C    3.889695   3.336099   2.560297   1.542160   2.594989
    17  H    4.624508   3.750918   2.765469   2.142830   3.505839
    18  H    4.610120   4.305369   3.514108   2.182024   2.825212
    19  C    4.521466   4.256096   4.265854   3.592523   4.007237
    20  N    3.603872   3.111385   3.008420   2.508068   3.178956
    21  H    5.310951   5.129161   4.920332   3.957748   4.306622
    22  H    4.812926   4.613331   4.927356   4.476416   4.781385
    23  H    3.487776   2.136043   1.093943   2.205330   3.504863
                    6          7          8          9         10
     6  C    0.000000
     7  H    2.167517   0.000000
     8  H    2.199730   1.765686   0.000000
     9  H    3.490452   4.203295   4.983754   0.000000
    10  H    2.172974   3.859710   4.342106   2.517885   0.000000
    11  H    2.159831   2.720199   3.861473   2.369598   1.756754
    12  H    1.093287   3.057125   2.461035   3.894152   2.481542
    13  H    1.096726   2.439309   2.576593   4.289068   2.511224
    14  H    3.443566   2.822592   3.884154   2.360450   3.848949
    15  O    3.624353   2.931930   2.531651   4.498745   5.147013
    16  C    3.289402   4.629531   4.623517   2.106933   2.758268
    17  H    4.263927   5.312644   5.356139   2.361156   3.733697
    18  H    3.681256   5.313285   5.345057   2.439172   2.539996
    19  C    3.866802   5.548256   4.762965   4.393950   3.976400
    20  N    3.169992   4.577146   4.018902   3.390098   3.434905
    21  H    4.413071   6.277373   5.643260   4.567942   4.000246
    22  H    4.322993   5.898600   4.807700   5.364530   4.818606
    23  H    3.961047   3.889210   4.247454   2.591525   4.341095
                   11         12         13         14         15
    11  H    0.000000
    12  H    3.064678   0.000000
    13  H    2.452832   1.757796   0.000000
    14  H    2.706438   4.126384   4.248997   0.000000
    15  O    4.542532   3.790025   4.499535   2.927991   0.000000
    16  C    3.499755   3.054064   4.266023   3.468273   4.124129
    17  H    4.265910   4.072437   5.280042   3.630357   4.339605
    18  H    3.727722   3.379563   4.488773   4.296724   5.169277
    19  C    5.096140   2.985262   4.692242   5.319507   4.702385
    20  N    4.205237   2.551880   4.163332   4.076573   3.637541
    21  H    5.384581   3.568195   5.134316   5.916212   5.692392
    22  H    5.861928   3.328653   5.073340   5.998601   4.849550
    23  H    3.856350   4.208140   4.993514   1.765621   2.525164
                   16         17         18         19         20
    16  C    0.000000
    17  H    1.098902   0.000000
    18  H    1.104361   1.774316   0.000000
    19  C    2.346094   2.899484   2.501394   0.000000
    20  N    1.456835   2.058037   2.133149   1.268332   0.000000
    21  H    2.600172   3.123469   2.272612   1.101504   2.088902
    22  H    3.350293   3.841145   3.588124   1.090836   2.037587
    23  H    2.707084   2.478538   3.741575   4.367071   3.119491
                   21         22         23
    21  H    0.000000
    22  H    1.871676   0.000000
    23  H    5.037203   5.002804   0.000000
 Symmetry turned off by external request.
 Stoichiometry    C8H13NO
 Framework group  C1[X(C8H13NO)]
 Deg. of freedom    63
 Full point group                 C1      NOp   1
 Rotational constants (GHZ):           1.6832781           1.1187459           0.9974180

 **********************************************************************

            Population analysis using the SCF density.

 **********************************************************************

 Alpha  occ. eigenvalues --  -19.13513 -14.35216 -10.27093 -10.23965 -10.22548
 Alpha  occ. eigenvalues --  -10.20921 -10.19590 -10.19387 -10.19235 -10.19115
 Alpha  occ. eigenvalues --   -1.03219  -0.93644  -0.83727  -0.77368  -0.73192
 Alpha  occ. eigenvalues --   -0.70653  -0.63171  -0.60338  -0.57111  -0.52652
 Alpha  occ. eigenvalues --   -0.49326  -0.48489  -0.47211  -0.45816  -0.44716
 Alpha  occ. eigenvalues --   -0.43752  -0.42268  -0.40831  -0.39751  -0.38650
 Alpha  occ. eigenvalues --   -0.36081  -0.35313  -0.34409  -0.33139  -0.32420
 Alpha  occ. eigenvalues --   -0.30367  -0.26751  -0.23741
 Alpha virt. eigenvalues --   -0.03852  -0.01867  -0.00138   0.01356   0.01845
 Alpha virt. eigenvalues --    0.02361   0.03379   0.04185   0.04603   0.05178
 Alpha virt. eigenvalues --    0.05336   0.06838   0.07324   0.07954   0.08582
 Alpha virt. eigenvalues --    0.08928   0.09806   0.10114   0.10681   0.11723
 Alpha virt. eigenvalues --    0.12474   0.12994   0.13427   0.13651   0.14504
 Alpha virt. eigenvalues --    0.15383   0.15563   0.17260   0.17551   0.17908
 Alpha virt. eigenvalues --    0.18352   0.18834   0.19218   0.19834   0.20585
 Alpha virt. eigenvalues --    0.21582   0.21814   0.22077   0.22919   0.23737
 Alpha virt. eigenvalues --    0.24297   0.24865   0.25596   0.26208   0.27214
 Alpha virt. eigenvalues --    0.27452   0.28090   0.29305   0.29609   0.30818
 Alpha virt. eigenvalues --    0.32351   0.33183   0.33426   0.34341   0.34961
 Alpha virt. eigenvalues --    0.36539   0.37063   0.38388   0.38904   0.39997
 Alpha virt. eigenvalues --    0.40684   0.41245   0.43700   0.46806   0.50993
 Alpha virt. eigenvalues --    0.61290   0.62411   0.63383   0.64101   0.65466
 Alpha virt. eigenvalues --    0.67439   0.69630   0.69657   0.71709   0.72990
 Alpha virt. eigenvalues --    0.73076   0.75650   0.77222   0.78625   0.80245
 Alpha virt. eigenvalues --    0.82038   0.82291   0.82623   0.84563   0.88515
 Alpha virt. eigenvalues --    0.89110   0.92646   0.93064   0.96416   0.97239
 Alpha virt. eigenvalues --    0.97542   0.99384   1.00061   1.01047   1.05018
 Alpha virt. eigenvalues --    1.05724   1.07373   1.08984   1.09336   1.10082
 Alpha virt. eigenvalues --    1.12047   1.12918   1.13324   1.17699   1.18586
 Alpha virt. eigenvalues --    1.20955   1.23029   1.30154   1.31541   1.32052
 Alpha virt. eigenvalues --    1.34408   1.36138   1.36653   1.38560   1.41350
 Alpha virt. eigenvalues --    1.43512   1.45832   1.47742   1.50063   1.51018
 Alpha virt. eigenvalues --    1.56080   1.60250   1.64731   1.66847   1.70354
 Alpha virt. eigenvalues --    1.70954   1.73971   1.76665   1.78482   1.80928
 Alpha virt. eigenvalues --    1.81982   1.84819   1.85007   1.87244   1.88680
 Alpha virt. eigenvalues --    1.89482   1.91275   1.94758   1.96041   1.98738
 Alpha virt. eigenvalues --    2.00343   2.02966   2.03204   2.03907   2.07329
 Alpha virt. eigenvalues --    2.09164   2.11883   2.12193   2.15243   2.16864
 Alpha virt. eigenvalues --    2.19222   2.20202   2.21742   2.25380   2.27358
 Alpha virt. eigenvalues --    2.29000   2.31488   2.32152   2.33680   2.34655
 Alpha virt. eigenvalues --    2.39212   2.40557   2.43026   2.44166   2.47219
 Alpha virt. eigenvalues --    2.48678   2.49514   2.51844   2.53577   2.55118
 Alpha virt. eigenvalues --    2.57382   2.58970   2.61610   2.64076   2.64469
 Alpha virt. eigenvalues --    2.68167   2.68816   2.70329   2.73177   2.76122
 Alpha virt. eigenvalues --    2.78222   2.80325   2.81774   2.84950   2.86886
 Alpha virt. eigenvalues --    2.87722   2.90070   2.91200   2.92773   2.94905
 Alpha virt. eigenvalues --    2.95364   2.98488   3.07548   3.22524   3.28890
 Alpha virt. eigenvalues --    3.31168   3.34368   3.35455   3.35881   3.38054
 Alpha virt. eigenvalues --    3.46311   3.49472   3.50884   3.51779   3.52714
 Alpha virt. eigenvalues --    3.57421   3.58038   4.19207   4.31181   4.33742
 Alpha virt. eigenvalues --    4.42562   4.48235   4.52024   4.68216   4.75763
 Alpha virt. eigenvalues --    4.77138   4.83217
          Condensed to atoms (all electrons):
               1          2          3          4          5          6
     1  C    6.561002  -0.367615  -0.511258   0.040988  -0.050260   0.071127
     2  C   -0.367615   6.154384  -0.627295   0.141661  -0.208158  -0.032922
     3  C   -0.511258  -0.627295   6.975237  -0.373297   0.248299   0.117315
     4  C    0.040988   0.141661  -0.373297   6.823490  -0.481844  -0.113489
     5  C   -0.050260  -0.208158   0.248299  -0.481844   6.004764   0.109695
     6  C    0.071127  -0.032922   0.117315  -0.113489   0.109695   5.473239
     7  H    0.374025  -0.000295   0.009146  -0.020808   0.025450  -0.071624
     8  H    0.374761  -0.042120   0.028299  -0.005096   0.019399  -0.042659
     9  H   -0.008036  -0.007054   0.022792   0.232827   0.018397   0.021262
    10  H    0.025625  -0.018349   0.022617  -0.059464   0.386710  -0.034466
    11  H   -0.022325   0.025578  -0.040208  -0.033147   0.423471  -0.046061
    12  H   -0.083684   0.055567  -0.024399  -0.007758  -0.034610   0.406631
    13  H   -0.036238   0.015182  -0.012403   0.043690  -0.061644   0.375341
    14  H    0.009844   0.021119   0.338171  -0.033155  -0.004965  -0.018301
    15  O   -0.153859   0.634371  -0.163070  -0.002421   0.000522   0.003447
    16  C    0.050318   0.049547  -0.091067   0.195592  -0.070105  -0.029778
    17  H    0.005888  -0.005766  -0.006097  -0.071263   0.026370  -0.011023
    18  H    0.000910  -0.002940   0.013746  -0.072948  -0.049948   0.012034
    19  C    0.021827  -0.043797   0.002554  -0.028923   0.060844  -0.051848
    20  N    0.015222   0.015081   0.085923  -0.429171   0.110317  -0.031161
    21  H   -0.000569   0.002909  -0.003298  -0.001276  -0.005698   0.001072
    22  H   -0.001095  -0.000107  -0.000229  -0.001419   0.001256   0.001594
    23  H    0.019349  -0.013722   0.372262  -0.035486   0.008014  -0.002170
               7          8          9         10         11         12
     1  C    0.374025   0.374761  -0.008036   0.025625  -0.022325  -0.083684
     2  C   -0.000295  -0.042120  -0.007054  -0.018349   0.025578   0.055567
     3  C    0.009146   0.028299   0.022792   0.022617  -0.040208  -0.024399
     4  C   -0.020808  -0.005096   0.232827  -0.059464  -0.033147  -0.007758
     5  C    0.025450   0.019399   0.018397   0.386710   0.423471  -0.034610
     6  C   -0.071624  -0.042659   0.021262  -0.034466  -0.046061   0.406631
     7  H    0.554470  -0.023768  -0.000015  -0.000024   0.002307   0.004767
     8  H   -0.023768   0.532521   0.000010  -0.000124  -0.000005  -0.004663
     9  H   -0.000015   0.000010   0.622892  -0.002137  -0.007140  -0.000080
    10  H   -0.000024  -0.000124  -0.002137   0.585015  -0.031198  -0.004383
    11  H    0.002307  -0.000005  -0.007140  -0.031198   0.577199   0.004903
    12  H    0.004767  -0.004663  -0.000080  -0.004383   0.004903   0.551871
    13  H   -0.007088  -0.001158  -0.000172  -0.002240  -0.005778  -0.031864
    14  H   -0.000007   0.000019  -0.008326  -0.000021   0.001658   0.000031
    15  O   -0.005348  -0.001988  -0.000455   0.000165  -0.000692  -0.001302
    16  C   -0.002649   0.000574  -0.026027  -0.002237   0.011318   0.002950
    17  H   -0.000000  -0.000000  -0.005153   0.000079  -0.000161  -0.000033
    18  H    0.000000  -0.000002  -0.001109   0.003528   0.000108   0.000109
    19  C    0.000751  -0.000524   0.000035   0.000188   0.000843   0.005664
    20  N    0.001116   0.001448   0.020248  -0.001950  -0.001673   0.002418
    21  H   -0.000000  -0.000000   0.000004  -0.000015  -0.000000   0.000001
    22  H   -0.000000   0.000001   0.000004   0.000003  -0.000000  -0.000098
    23  H    0.000017  -0.000126  -0.001064  -0.000127  -0.000012  -0.000004
              13         14         15         16         17         18
     1  C   -0.036238   0.009844  -0.153859   0.050318   0.005888   0.000910
     2  C    0.015182   0.021119   0.634371   0.049547  -0.005766  -0.002940
     3  C   -0.012403   0.338171  -0.163070  -0.091067  -0.006097   0.013746
     4  C    0.043690  -0.033155  -0.002421   0.195592  -0.071263  -0.072948
     5  C   -0.061644  -0.004965   0.000522  -0.070105   0.026370  -0.049948
     6  C    0.375341  -0.018301   0.003447  -0.029778  -0.011023   0.012034
     7  H   -0.007088  -0.000007  -0.005348  -0.002649  -0.000000   0.000000
     8  H   -0.001158   0.000019  -0.001988   0.000574  -0.000000  -0.000002
     9  H   -0.000172  -0.008326  -0.000455  -0.026027  -0.005153  -0.001109
    10  H   -0.002240  -0.000021   0.000165  -0.002237   0.000079   0.003528
    11  H   -0.005778   0.001658  -0.000692   0.011318  -0.000161   0.000108
    12  H   -0.031864   0.000031  -0.001302   0.002950  -0.000033   0.000109
    13  H    0.590376  -0.000014  -0.000499   0.002297   0.000005   0.000013
    14  H   -0.000014   0.550231  -0.006168   0.011045   0.000121  -0.000133
    15  O   -0.000499  -0.006168   8.141863  -0.006462   0.000355  -0.000030
    16  C    0.002297   0.011045  -0.006462   5.345074   0.415090   0.447862
    17  H    0.000005   0.000121   0.000355   0.415090   0.574253  -0.036324
    18  H    0.000013  -0.000133  -0.000030   0.447862  -0.036324   0.622581
    19  C   -0.000438   0.000147   0.001112  -0.117640  -0.003781  -0.009386
    20  N   -0.001704   0.000108  -0.009754   0.323671  -0.040580  -0.056423
    21  H    0.000004   0.000000  -0.000054  -0.023880  -0.000054   0.013333
    22  H   -0.000004  -0.000000   0.000102  -0.004707  -0.000272  -0.000413
    23  H    0.000009  -0.024252  -0.004336  -0.012387   0.003156   0.000059
              19         20         21         22         23
     1  C    0.021827   0.015222  -0.000569  -0.001095   0.019349
     2  C   -0.043797   0.015081   0.002909  -0.000107  -0.013722
     3  C    0.002554   0.085923  -0.003298  -0.000229   0.372262
     4  C   -0.028923  -0.429171  -0.001276  -0.001419  -0.035486
     5  C    0.060844   0.110317  -0.005698   0.001256   0.008014
     6  C   -0.051848  -0.031161   0.001072   0.001594  -0.002170
     7  H    0.000751   0.001116  -0.000000  -0.000000   0.000017
     8  H   -0.000524   0.001448  -0.000000   0.000001  -0.000126
     9  H    0.000035   0.020248   0.000004   0.000004  -0.001064
    10  H    0.000188  -0.001950  -0.000015   0.000003  -0.000127
    11  H    0.000843  -0.001673  -0.000000  -0.000000  -0.000012
    12  H    0.005664   0.002418   0.000001  -0.000098  -0.000004
    13  H   -0.000438  -0.001704   0.000004  -0.000004   0.000009
    14  H    0.000147   0.000108   0.000000  -0.000000  -0.024252
    15  O    0.001112  -0.009754  -0.000054   0.000102  -0.004336
    16  C   -0.117640   0.323671  -0.023880  -0.004707  -0.012387
    17  H   -0.003781  -0.040580  -0.000054  -0.000272   0.003156
    18  H   -0.009386  -0.056423   0.013333  -0.000413   0.000059
    19  C    5.019240   0.409083   0.399139   0.422894  -0.001466
    20  N    0.409083   6.853716  -0.058382  -0.078127  -0.004167
    21  H    0.399139  -0.058382   0.625850  -0.057099  -0.000004
    22  H    0.422894  -0.078127  -0.057099   0.580898   0.000002
    23  H   -0.001466  -0.004167  -0.000004   0.000002   0.532460
 Mulliken charges:
               1
     1  C   -0.335948
     2  C    0.254741
     3  C   -0.383741
     4  C    0.292717
     5  C   -0.476275
     6  C   -0.107256
     7  H    0.159577
     8  H    0.165202
     9  H    0.128296
    10  H    0.132805
    11  H    0.141014
    12  H    0.157968
    13  H    0.134328
    14  H    0.162848
    15  O   -0.425496
    16  C   -0.468398
    17  H    0.155190
    18  H    0.115373
    19  C   -0.086518
    20  N   -0.125258
    21  H    0.108018
    22  H    0.136816
    23  H    0.163996
 Sum of Mulliken charges =  -0.00000
 Mulliken charges with hydrogens summed into heavy atoms:
               1
     1  C   -0.011168
     2  C    0.254741
     3  C   -0.056897
     4  C    0.421012
     5  C   -0.202456
     6  C    0.185040
    15  O   -0.425496
    16  C   -0.197835
    19  C    0.158316
    20  N   -0.125258
 APT charges:
               1
     1  C   -0.823204
     2  C   -0.411476
     3  C   -0.783327
     4  C   -0.071104
     5  C   -1.102857
     6  C   -0.655138
     7  H    0.494822
     8  H    0.480223
     9  H    0.496149
    10  H    0.448428
    11  H    0.460704
    12  H    0.266343
    13  H    0.558649
    14  H    0.490637
    15  O   -0.107311
    16  C   -1.021606
    17  H    0.470803
    18  H    0.417319
    19  C   -0.388631
    20  N   -0.641459
    21  H    0.499457
    22  H    0.505555
    23  H    0.417021
 Sum of APT charges =  -0.00000
 APT charges with hydrogens summed into heavy atoms:
               1
     1  C    0.151840
     2  C   -0.411476
     3  C    0.124332
     4  C    0.425046
     5  C   -0.193725
     6  C    0.169854
    15  O   -0.107311
    16  C   -0.133483
    19  C    0.616381
    20  N   -0.641459
 Electronic spatial extent (au):  <R**2>=           1443.0806
 Charge=             -0.0000 electrons
 Dipole moment (field-independent basis, Debye):
    X=             -3.9583    Y=              2.3827    Z=              0.0338  Tot=              4.6202
 Quadrupole moment (field-independent basis, Debye-Ang):
   XX=            -66.4327   YY=            -63.3523   ZZ=            -56.8938
   XY=              8.0315   XZ=              1.2607   YZ=              1.7276
 Traceless Quadrupole moment (field-independent basis, Debye-Ang):
   XX=             -4.2064   YY=             -1.1260   ZZ=              5.3325
   XY=              8.0315   XZ=              1.2607   YZ=              1.7276
 Octapole moment (field-independent basis, Debye-Ang**2):
  XXX=            -16.8853  YYY=             -6.4074  ZZZ=             -5.6324  XYY=             -1.8679
  XXY=              6.9463  XXZ=             -6.3361  XZZ=              0.5513  YZZ=             -9.8345
  YYZ=             -1.9743  XYZ=             -1.2827
 Hexadecapole moment (field-independent basis, Debye-Ang**3):
 XXXX=           -916.9897 YYYY=           -618.0374 ZZZZ=           -465.7750 XXXY=            -27.6483
 XXXZ=            -58.7798 YYYX=            -58.0051 YYYZ=            -35.7715 ZZZX=            -53.4304
 ZZZY=            -17.5549 XXYY=           -255.1546 XXZZ=           -213.8498 YYZZ=           -170.3396
 XXYZ=             -1.8959 YYXZ=            -18.2609 ZZXY=            -10.1275
 N-N= 5.481604912351D+02 E-N=-2.124011716236D+03  KE= 4.383923536743D+02
  Exact polarizability:   0.000   0.000   0.000   0.000   0.000   0.000
 Approx polarizability: 144.624  -8.344 134.728   5.207   7.111 146.422

 This type of calculation cannot be archived.


 BE NOT THE FIRST BY WHOM THE NEW ARE TRIED,
 NOR YET THE THE LAST TO LAY THE OLD ASIDE.

                          -- ALEXANDER POPE
 Job cpu time:       8 days  7 hours 30 minutes 19.9 seconds.
 Elapsed time:       0 days 12 hours 28 minutes 57.5 seconds.
 File lengths (MBytes):  RWF=    161 Int=      0 D2E=      0 Chk=     13 Scr=      1
 Normal termination of Gaussian 16 at Sun Apr 14 23:14:17 2019.
