 Entering Gaussian System, Link 0=g16
 Input=CalcAll_LQA_Reverse_5.com
 Output=CalcAll_LQA_Reverse_5.log
 Initial command:
 /opt/g16/l1.exe "/scratch/Grace/g03/Gau-30432.inp" -scrdir="/scratch/Grace/g03/"
 Entering Link 1 = /opt/g16/l1.exe PID=     30433.
  
 Copyright (c) 1988,1990,1992,1993,1995,1998,2003,2009,2016,
            Gaussian, Inc.  All Rights Reserved.
  
 This is part of the Gaussian(R) 16 program.  It is based on
 the Gaussian(R) 09 system (copyright 2009, Gaussian, Inc.),
 the Gaussian(R) 03 system (copyright 2003, Gaussian, Inc.),
 the Gaussian(R) 98 system (copyright 1998, Gaussian, Inc.),
 the Gaussian(R) 94 system (copyright 1995, Gaussian, Inc.),
 the Gaussian 92(TM) system (copyright 1992, Gaussian, Inc.),
 the Gaussian 90(TM) system (copyright 1990, Gaussian, Inc.),
 the Gaussian 88(TM) system (copyright 1988, Gaussian, Inc.),
 the Gaussian 86(TM) system (copyright 1986, Carnegie Mellon
 University), and the Gaussian 82(TM) system (copyright 1983,
 Carnegie Mellon University). Gaussian is a federally registered
 trademark of Gaussian, Inc.
  
 This software contains proprietary and confidential information,
 including trade secrets, belonging to Gaussian, Inc.
  
 This software is provided under written license and may be
 used, copied, transmitted, or stored only in accord with that
 written license.
  
 The following legend is applicable only to US Government
 contracts under FAR:
  
                    RESTRICTED RIGHTS LEGEND
  
 Use, reproduction and disclosure by the US Government is
 subject to restrictions as set forth in subparagraphs (a)
 and (c) of the Commercial Computer Software - Restricted
 Rights clause in FAR 52.227-19.
  
 Gaussian, Inc.
 340 Quinnipiac St., Bldg. 40, Wallingford CT 06492
  
  
 ---------------------------------------------------------------
 Warning -- This program may not be used in any manner that
 competes with the business of Gaussian, Inc. or will provide
 assistance to any competitor of Gaussian, Inc.  The licensee
 of this program is prohibited from giving any competitor of
 Gaussian, Inc. access to this program.  By using this program,
 the user acknowledges that Gaussian, Inc. is engaged in the
 business of creating and licensing software in the field of
 computational chemistry and represents and warrants to the
 licensee that it is not a competitor of Gaussian, Inc. and that
 it will not use this program in any manner prohibited above.
 ---------------------------------------------------------------
  

 Cite this work as:
 Gaussian 16, Revision A.03,
 M. J. Frisch, G. W. Trucks, H. B. Schlegel, G. E. Scuseria, 
 M. A. Robb, J. R. Cheeseman, G. Scalmani, V. Barone, 
 G. A. Petersson, H. Nakatsuji, X. Li, M. Caricato, A. V. Marenich, 
 J. Bloino, B. G. Janesko, R. Gomperts, B. Mennucci, H. P. Hratchian, 
 J. V. Ortiz, A. F. Izmaylov, J. L. Sonnenberg, D. Williams-Young, 
 F. Ding, F. Lipparini, F. Egidi, J. Goings, B. Peng, A. Petrone, 
 T. Henderson, D. Ranasinghe, V. G. Zakrzewski, J. Gao, N. Rega, 
 G. Zheng, W. Liang, M. Hada, M. Ehara, K. Toyota, R. Fukuda, 
 J. Hasegawa, M. Ishida, T. Nakajima, Y. Honda, O. Kitao, H. Nakai, 
 T. Vreven, K. Throssell, J. A. Montgomery, Jr., J. E. Peralta, 
 F. Ogliaro, M. J. Bearpark, J. J. Heyd, E. N. Brothers, K. N. Kudin, 
 V. N. Staroverov, T. A. Keith, R. Kobayashi, J. Normand, 
 K. Raghavachari, A. P. Rendell, J. C. Burant, S. S. Iyengar, 
 J. Tomasi, M. Cossi, J. M. Millam, M. Klene, C. Adamo, R. Cammi, 
 J. W. Ochterski, R. L. Martin, K. Morokuma, O. Farkas, 
 J. B. Foresman, and D. J. Fox, Gaussian, Inc., Wallingford CT, 2016.
 
 ******************************************
 Gaussian 16:  ES64L-G16RevA.03 25-Dec-2016
                14-Apr-2019 
 ******************************************
 %NProcShared=16
 Will use up to   16 processors via shared memory.
 ----------------------------------------------------------------------
 #B3LYP/6-31+G(d,p) IRC(CalcAll,Reverse,StepSize=5,LQA,MaxPoints=200,Ma
 xCycles=100) Nosymm
 ----------------------------------------------------------------------
 1/6=100,10=4,18=10,22=2,26=3,38=1,39=5,42=200,44=3,45=2,71=1,172=1/1,23;
 2/12=2,15=1,17=6,18=5,29=1,40=1/2;
 3/5=1,6=6,7=111,11=2,25=1,30=1,71=2,74=-5,140=1/1,2,3;
 4//1;
 5/5=2,38=5/2;
 8/6=4,10=90,11=11/1;
 11/6=1,8=1,9=11,15=111,16=1,31=1/1,2,10;
 10/6=1,13=1,31=1/2;
 6/7=2,8=2,9=2,10=2,18=1,28=1/1;
 7/10=1,25=1,30=1/1,2,3,16;
 1/6=100,10=4,18=10,22=2,26=3,39=5,42=200,44=3,45=2,71=1/23(2);
 2/15=1,29=1/2;
 99/5=20/99;
 2/15=1,29=1/2;
 3/5=1,6=6,7=111,11=2,25=1,30=1,71=2,74=-5,140=1/1,2,3;
 4/5=5,16=3,69=1/1;
 5/5=2,38=5/2;
 8/6=4,10=90,11=11/1;
 11/6=1,8=1,9=11,15=111,16=1,31=1/1,2,10;
 10/6=1,13=1,31=1/2;
 7/10=1,25=1,30=1/1,2,3,16;
 1/6=100,10=4,18=10,22=2,26=3,39=5,42=200,44=3,45=2,71=1/23(-8);
 2/15=1,29=1/2;
 6/7=2,8=2,9=2,10=2,18=1,19=2,28=1/1;
 99/5=20/99;
 ---
 IRC
 ---
 Symbolic Z-matrix:
 Charge =  0 Multiplicity = 1
 6                     1.46386   0.93071  -0.63673 
 6                     1.36018  -0.38637   0.1363 
 6                     0.26934  -0.39626   1.30017 
 6                    -1.03009   0.35266   1.01448 
 6                    -0.75306   1.73052   0.37302 
 6                     0.15302   1.69401  -0.87022 
 1                     2.14816   1.54294  -0.0303 
 1                     1.98755   0.7284   -1.57544 
 1                    -1.5251    0.54      1.98055 
 1                    -1.70441   2.2196    0.12701 
 1                    -0.27401   2.35928   1.13632 
 1                    -0.38217   1.26374  -1.72062 
 1                     0.39004   2.7237   -1.16503 
 1                     0.85014   0.10872   2.08617 
 8                     2.34349  -1.09304   0.30566 
 6                    -1.98669  -0.55628   0.2502 
 1                    -2.25339  -1.41781   0.86698 
 1                    -2.90304  -0.04596  -0.06336 
 6                    -1.34419  -1.14469  -1.10732 
 7                    -0.07906  -1.55463  -0.75162 
 1                    -2.01052  -1.98489  -1.37798 
 1                    -1.41599  -0.33833  -1.8601 
 1                     0.10412  -1.41849   1.65245 
 
 IRC-IRC-IRC-IRC-IRC-IRC-IRC-IRC-IRC-IRC-IRC-IRC-IRC-IRC-IRC-IRC-IRC-IRC
 ------------------------------------------------------------------------
 INPUT DATA FOR L123
 ------------------------------------------------------------------------
 GENERAL PARAMETERS:
 Rxn path following direction = Reverse
 Maximum points per path      = 200
 Step size                    =   0.050 bohr
 Integration scheme           = LQA                                 
 Initial Hessian              = CalcFC
 Hessian evaluation           = Analytic at all predictor steps
                              = Update at all corrector steps
 Hessian updating method      = Bofill                              
 ------------------------------------------------------------------------
 IRC-IRC-IRC-IRC-IRC-IRC-IRC-IRC-IRC-IRC-IRC-IRC-IRC-IRC-IRC-IRC-IRC-IRC
                          Input orientation:                          
 ---------------------------------------------------------------------
 Center     Atomic      Atomic             Coordinates (Angstroms)
 Number     Number       Type             X           Y           Z
 ---------------------------------------------------------------------
      1          6           0        1.463859    0.930708   -0.636728
      2          6           0        1.360177   -0.386368    0.136302
      3          6           0        0.269341   -0.396256    1.300168
      4          6           0       -1.030094    0.352656    1.014480
      5          6           0       -0.753063    1.730524    0.373019
      6          6           0        0.153016    1.694013   -0.870223
      7          1           0        2.148155    1.542943   -0.030304
      8          1           0        1.987553    0.728397   -1.575439
      9          1           0       -1.525095    0.540003    1.980551
     10          1           0       -1.704412    2.219601    0.127006
     11          1           0       -0.274014    2.359284    1.136318
     12          1           0       -0.382169    1.263744   -1.720623
     13          1           0        0.390039    2.723695   -1.165029
     14          1           0        0.850136    0.108718    2.086174
     15          8           0        2.343494   -1.093037    0.305662
     16          6           0       -1.986693   -0.556283    0.250197
     17          1           0       -2.253394   -1.417812    0.866979
     18          1           0       -2.903038   -0.045960   -0.063361
     19          6           0       -1.344193   -1.144692   -1.107316
     20          7           0       -0.079060   -1.554632   -0.751618
     21          1           0       -2.010525   -1.984886   -1.377977
     22          1           0       -1.415986   -0.338334   -1.860103
     23          1           0        0.104120   -1.418488    1.652448
 ---------------------------------------------------------------------
                    Distance matrix (angstroms):
                    1          2          3          4          5
     1  C    0.000000
     2  C    1.530691   0.000000
     3  C    2.634250   1.595182   0.000000
     4  C    3.046380   2.651556   1.526767   0.000000
     5  C    2.563989   3.000508   2.535371   1.544907   0.000000
     6  C    1.534752   2.607358   3.015519   2.598287   1.538819
     7  H    1.100383   2.090672   3.010081   3.551003   2.935119
     8  H    1.093784   2.136904   3.533584   3.994378   3.508807
     9  H    3.992073   3.547423   2.135299   1.101553   2.144186
    10  H    3.504636   4.022793   3.480620   2.174350   1.097626
    11  H    2.864389   3.348017   2.813376   2.147803   1.098841
    12  H    2.166463   3.034273   3.507883   2.954772   2.176875
    13  H    2.155689   3.508151   3.978173   3.519782   2.158393
    14  H    2.909728   2.075392   1.100058   2.177912   2.852263
    15  O    2.399458   1.222692   2.403468   3.738121   4.191145
    16  C    3.860581   3.353115   2.493539   1.524920   2.601233
    17  H    4.647004   3.828271   2.755979   2.157030   3.522358
    18  H    4.511366   4.281442   3.470721   2.197397   2.822891
    19  C    3.523336   3.071687   2.993264   2.615861   3.287506
    20  N    2.927578   2.055394   2.381815   2.767908   3.537137
    21  H    4.595811   4.026156   3.859274   3.485570   4.295517
    22  H    3.376481   3.419798   3.582038   2.981544   3.115521
    23  H    3.550766   2.222982   1.093781   2.197816   3.505421
                    6          7          8          9         10
     6  C    0.000000
     7  H    2.169992   0.000000
     8  H    2.189810   1.754058   0.000000
     9  H    3.503528   4.306065   5.001925   0.000000
    10  H    2.172728   3.914701   4.330429   2.507755   0.000000
    11  H    2.156652   2.809684   3.889486   2.363835   1.756206
    12  H    1.093039   3.055760   2.433774   3.940656   2.464898
    13  H    1.096966   2.402654   2.588764   4.281463   2.512009
    14  H    3.426284   2.867287   3.883958   2.416379   3.849660
    15  O    3.734775   2.664474   2.642510   4.520847   5.233644
    16  C    3.301140   4.645686   4.558287   2.099772   2.792918
    17  H    4.300248   5.380039   5.343898   2.367172   3.752295
    18  H    3.608046   5.295305   5.177247   2.533704   2.570158
    19  C    3.218089   4.536500   3.850731   3.522193   3.601635
    20  N    3.259083   3.882750   3.187757   3.734068   4.202212
    21  H    4.298025   5.617510   4.835858   4.229706   4.476203
    22  H    2.751738   4.426112   3.578132   3.941320   3.251895
    23  H    4.006735   3.972381   4.309952   2.568595   4.339753
                   11         12         13         14         15
    11  H    0.000000
    12  H    3.061702   0.000000
    13  H    2.422800   1.742540   0.000000
    14  H    2.689049   4.164657   4.197632   0.000000
    15  O    4.411333   4.133943   4.532809   2.616210   0.000000
    16  C    3.495570   3.125880   4.290685   3.443928   4.363680
    17  H    4.272814   4.169881   5.316848   3.667237   4.642406
    18  H    3.759813   3.288863   4.441736   4.327903   5.362709
    19  C    4.296164   2.664995   4.239730   4.072407   3.949457
    20  N    4.349833   2.995678   4.323777   3.418070   2.683222
    21  H    5.311211   3.650006   5.289498   4.956501   4.752633
    22  H    4.190439   1.911776   3.622275   4.572556   4.403840
    23  H    3.831571   4.336871   5.017729   1.754143   2.633353
                   16         17         18         19         20
    16  C    0.000000
    17  H    1.092603   0.000000
    18  H    1.094731   1.780322   0.000000
    19  C    1.613032   2.190681   2.174178   0.000000
    20  N    2.374742   2.714094   3.274850   1.376638   0.000000
    21  H    2.166201   2.328172   2.506836   1.105975   2.075572
    22  H    2.196947   3.050164   2.350551   1.105466   2.120257
    23  H    2.661053   2.484921   3.724357   3.128717   2.414875
                   21         22         23
    21  H    0.000000
    22  H    1.815780   0.000000
    23  H    3.738450   3.976867   0.000000
 Symmetry turned off by external request.
 Stoichiometry    C8H13NO
 Framework group  C1[X(C8H13NO)]
 Deg. of freedom    63
 Full point group                 C1      NOp   1
 Rotational constants (GHZ):           1.7603598           1.4060199           1.1252446
 Standard basis: 6-31+G(d,p) (6D, 7F)
   255 basis functions,   411 primitive gaussians,   255 cartesian basis functions
    38 alpha electrons       38 beta electrons
       nuclear repulsion energy       565.9478777484 Hartrees.
 NAtoms=   23 NActive=   23 NUniq=   23 SFac= 1.00D+00 NAtFMM=   60 NAOKFM=F Big=F
 Integral buffers will be    131072 words long.
 Raffenetti 2 integral format.
 Two-electron integral symmetry is turned off.
 One-electron integrals computed using PRISM.
 NBasis=   255 RedAO= T EigKep=  1.61D-05  NBF=   255
 NBsUse=   255 1.00D-06 EigRej= -1.00D+00 NBFU=   255
 ExpMin= 4.38D-02 ExpMax= 5.48D+03 ExpMxC= 8.25D+02 IAcc=3 IRadAn=         5 AccDes= 0.00D+00
 Harris functional with IExCor=  402 and IRadAn=       5 diagonalized for initial guess.
 HarFok:  IExCor=  402 AccDes= 0.00D+00 IRadAn=         5 IDoV= 1 UseB2=F ITyADJ=14
 ICtDFT=  3500011 ScaDFX=  1.000000  1.000000  1.000000  1.000000
 FoFCou: FMM=F IPFlag=           0 FMFlag=      100000 FMFlg1=           0
         NFxFlg=           0 DoJE=T BraDBF=F KetDBF=T FulRan=T
         wScrn=  0.000000 ICntrl=       500 IOpCl=  0 I1Cent=   200000004 NGrid=           0
         NMat0=    1 NMatS0=      1 NMatT0=    0 NMatD0=    1 NMtDS0=    0 NMtDT0=    0
 Symmetry not used in FoFCou.
 Requested convergence on RMS density matrix=1.00D-08 within 128 cycles.
 Requested convergence on MAX density matrix=1.00D-06.
 Requested convergence on             energy=1.00D-06.
 No special actions if energy rises.
 EnCoef did     3 forward-backward iterations
 SCF Done:  E(RB3LYP) =  -442.511930514     A.U. after   18 cycles
            NFock= 18  Conv=0.96D-08     -V/T= 2.0096
 DoSCS=F DFT=T ScalE2(SS,OS)=  1.000000  1.000000
 Range of M.O.s used for correlation:     1   255
 NBasis=   255 NAE=    38 NBE=    38 NFC=     0 NFV=     0
 NROrb=    255 NOA=    38 NOB=    38 NVA=   217 NVB=   217

 **** Warning!!: The largest alpha MO coefficient is  0.48487412D+02


 **** Warning!!: The smallest alpha delta epsilon is  0.76766673D-01

 Symmetrizing basis deriv contribution to polar:
 IMax=3 JMax=2 DiffMx= 0.00D+00
 G2DrvN: will do    24 centers at a time, making    1 passes.
 Calling FoFCou, ICntrl=  3107 FMM=F I1Cent=   0 AccDes= 0.00D+00.
 End of G2Drv F.D. properties file   721 does not exist.
 End of G2Drv F.D. properties file   722 does not exist.
 End of G2Drv F.D. properties file   788 does not exist.
          IDoAtm=11111111111111111111111
          Differentiating once with respect to nuclear coordinates.
 CalDSu exits because no D1Ps are significant.
          There are    72 degrees of freedom in the 1st order CPHF.  IDoFFX=6 NUNeed=     0.
     66 vectors produced by pass  0 Test12= 1.15D-14 1.39D-09 XBig12= 2.79D-01 2.20D-01.
 AX will form    48 AO Fock derivatives at one time.
     66 vectors produced by pass  1 Test12= 1.15D-14 1.39D-09 XBig12= 5.59D-02 3.30D-02.
     66 vectors produced by pass  2 Test12= 1.15D-14 1.39D-09 XBig12= 6.69D-04 4.19D-03.
     66 vectors produced by pass  3 Test12= 1.15D-14 1.39D-09 XBig12= 2.21D-06 1.93D-04.
     66 vectors produced by pass  4 Test12= 1.15D-14 1.39D-09 XBig12= 3.19D-09 5.57D-06.
     57 vectors produced by pass  5 Test12= 1.15D-14 1.39D-09 XBig12= 2.82D-12 1.66D-07.
      7 vectors produced by pass  6 Test12= 1.15D-14 1.39D-09 XBig12= 2.45D-15 5.09D-09.
 InvSVY:  IOpt=1 It=  1 EMax= 7.22D-16
 Solved reduced A of dimension   394 with    72 vectors.
 End of Minotr F.D. properties file   721 does not exist.
 End of Minotr F.D. properties file   722 does not exist.
 End of Minotr F.D. properties file   788 does not exist.

 **********************************************************************

            Population analysis using the SCF density.

 **********************************************************************

 Alpha  occ. eigenvalues --  -19.12033 -14.37381 -10.28321 -10.23806 -10.23757
 Alpha  occ. eigenvalues --  -10.21938 -10.21026 -10.20450 -10.19856 -10.19479
 Alpha  occ. eigenvalues --   -1.02401  -0.89740  -0.83453  -0.78188  -0.74062
 Alpha  occ. eigenvalues --   -0.71182  -0.63467  -0.60803  -0.58011  -0.53632
 Alpha  occ. eigenvalues --   -0.49088  -0.48041  -0.47075  -0.45096  -0.44853
 Alpha  occ. eigenvalues --   -0.43750  -0.41987  -0.41033  -0.39917  -0.38336
 Alpha  occ. eigenvalues --   -0.37203  -0.35791  -0.34334  -0.33589  -0.33266
 Alpha  occ. eigenvalues --   -0.30312  -0.23421  -0.22082
 Alpha virt. eigenvalues --   -0.14406  -0.01170   0.00173   0.00717   0.01976
 Alpha virt. eigenvalues --    0.02839   0.03494   0.03642   0.04290   0.05017
 Alpha virt. eigenvalues --    0.05476   0.07183   0.07482   0.08143   0.08344
 Alpha virt. eigenvalues --    0.09039   0.09889   0.10235   0.11295   0.12222
 Alpha virt. eigenvalues --    0.12410   0.12984   0.13124   0.13723   0.14242
 Alpha virt. eigenvalues --    0.15090   0.15743   0.16831   0.17521   0.17913
 Alpha virt. eigenvalues --    0.18040   0.18343   0.19225   0.19814   0.19907
 Alpha virt. eigenvalues --    0.20582   0.21424   0.22267   0.22891   0.23115
 Alpha virt. eigenvalues --    0.23922   0.24503   0.25403   0.26211   0.26494
 Alpha virt. eigenvalues --    0.27985   0.28164   0.28637   0.30518   0.31173
 Alpha virt. eigenvalues --    0.31320   0.32518   0.33227   0.34674   0.35607
 Alpha virt. eigenvalues --    0.36129   0.36701   0.37072   0.38535   0.39517
 Alpha virt. eigenvalues --    0.39794   0.41229   0.42898   0.44148   0.46169
 Alpha virt. eigenvalues --    0.59677   0.62091   0.62897   0.63295   0.65538
 Alpha virt. eigenvalues --    0.66663   0.68803   0.69567   0.71273   0.72839
 Alpha virt. eigenvalues --    0.73547   0.75648   0.76345   0.77487   0.78204
 Alpha virt. eigenvalues --    0.80068   0.82605   0.83046   0.85830   0.87491
 Alpha virt. eigenvalues --    0.90989   0.93577   0.95519   0.95636   0.96087
 Alpha virt. eigenvalues --    0.97116   0.99129   1.02444   1.04187   1.04579
 Alpha virt. eigenvalues --    1.06060   1.07461   1.08407   1.10503   1.11166
 Alpha virt. eigenvalues --    1.13344   1.13876   1.15546   1.16611   1.17327
 Alpha virt. eigenvalues --    1.21104   1.23988   1.28493   1.29542   1.30717
 Alpha virt. eigenvalues --    1.34512   1.36754   1.37948   1.39763   1.41804
 Alpha virt. eigenvalues --    1.46936   1.48010   1.53126   1.55809   1.57840
 Alpha virt. eigenvalues --    1.59898   1.61694   1.65678   1.68283   1.71242
 Alpha virt. eigenvalues --    1.73662   1.74463   1.77178   1.77514   1.80345
 Alpha virt. eigenvalues --    1.82648   1.83135   1.84137   1.85421   1.88440
 Alpha virt. eigenvalues --    1.90119   1.94113   1.95280   1.97270   2.00447
 Alpha virt. eigenvalues --    2.01040   2.02887   2.03955   2.07203   2.08541
 Alpha virt. eigenvalues --    2.10510   2.11681   2.12406   2.15715   2.17994
 Alpha virt. eigenvalues --    2.18880   2.20633   2.22431   2.25078   2.26134
 Alpha virt. eigenvalues --    2.28287   2.29530   2.30373   2.34549   2.35449
 Alpha virt. eigenvalues --    2.38128   2.40287   2.42712   2.43456   2.44322
 Alpha virt. eigenvalues --    2.44989   2.50663   2.51317   2.53436   2.54443
 Alpha virt. eigenvalues --    2.57690   2.59590   2.60857   2.64831   2.65542
 Alpha virt. eigenvalues --    2.66635   2.67605   2.71104   2.72223   2.75075
 Alpha virt. eigenvalues --    2.77294   2.78297   2.81565   2.82666   2.85585
 Alpha virt. eigenvalues --    2.86347   2.88376   2.90017   2.90870   2.92536
 Alpha virt. eigenvalues --    2.94009   2.95413   3.02052   3.24005   3.27331
 Alpha virt. eigenvalues --    3.29517   3.32425   3.35567   3.35822   3.40754
 Alpha virt. eigenvalues --    3.44639   3.47825   3.50173   3.50785   3.52886
 Alpha virt. eigenvalues --    3.53937   3.56552   4.13658   4.29502   4.37017
 Alpha virt. eigenvalues --    4.49142   4.54044   4.59151   4.68414   4.76699
 Alpha virt. eigenvalues --    4.79652   4.86004
          Condensed to atoms (all electrons):
               1          2          3          4          5          6
     1  C    6.452114  -1.031750   0.278203   0.140934  -0.044480  -0.059137
     2  C   -1.031750   8.142764  -1.830687   0.018992   0.019891   0.086630
     3  C    0.278203  -1.830687   7.694371  -0.479562   0.018178  -0.007937
     4  C    0.140934   0.018992  -0.479562   6.772687  -0.258850  -0.105625
     5  C   -0.044480   0.019891   0.018178  -0.258850   5.849073   0.056352
     6  C   -0.059137   0.086630  -0.007937  -0.105625   0.056352   5.625428
     7  H    0.409382  -0.051517   0.003468   0.000377   0.006682  -0.051537
     8  H    0.429258  -0.091933   0.035542  -0.010867   0.021486  -0.056966
     9  H   -0.011393   0.001264   0.018631   0.252337  -0.015480   0.025733
    10  H    0.038834  -0.030074   0.029363  -0.074629   0.415569  -0.053742
    11  H   -0.009670   0.010508  -0.020476  -0.048474   0.432252  -0.059895
    12  H   -0.088221   0.058786  -0.028638   0.003384  -0.021943   0.390004
    13  H   -0.028881   0.012405  -0.006848   0.030170  -0.053747   0.378467
    14  H   -0.019270   0.029816   0.328686  -0.019840  -0.006413  -0.003502
    15  O   -0.153125   0.499419  -0.081792   0.009701  -0.022059   0.017884
    16  C   -0.139141   0.284568  -0.076497  -0.317464   0.080511  -0.027276
    17  H    0.001854   0.002669  -0.033492  -0.022998   0.016515  -0.006497
    18  H    0.005275  -0.016850   0.034954  -0.072343  -0.011032   0.004045
    19  C    0.207880  -0.404635   0.164512  -0.005293   0.055133  -0.138798
    20  N   -0.076939   0.128895  -0.023454  -0.021068  -0.103330   0.110421
    21  H    0.000715  -0.008325  -0.003158   0.066488  -0.018210   0.011985
    22  H   -0.005308   0.026993   0.000996  -0.105301   0.076021  -0.058143
    23  H    0.002701   0.019072   0.352676  -0.026895   0.006438   0.000022
               7          8          9         10         11         12
     1  C    0.409382   0.429258  -0.011393   0.038834  -0.009670  -0.088221
     2  C   -0.051517  -0.091933   0.001264  -0.030074   0.010508   0.058786
     3  C    0.003468   0.035542   0.018631   0.029363  -0.020476  -0.028638
     4  C    0.000377  -0.010867   0.252337  -0.074629  -0.048474   0.003384
     5  C    0.006682   0.021486  -0.015480   0.415569   0.432252  -0.021943
     6  C   -0.051537  -0.056966   0.025733  -0.053742  -0.059895   0.390004
     7  H    0.556535  -0.025442  -0.000011  -0.000073   0.002123   0.004873
     8  H   -0.025442   0.535650   0.000008  -0.000115  -0.000029  -0.005413
     9  H   -0.000011   0.000008   0.598318  -0.002522  -0.006248  -0.000110
    10  H   -0.000073  -0.000115  -0.002522   0.582140  -0.030606  -0.005266
    11  H    0.002123  -0.000029  -0.006248  -0.030606   0.573104   0.005273
    12  H    0.004873  -0.005413  -0.000110  -0.005266   0.005273   0.594737
    13  H   -0.006745  -0.000463  -0.000144  -0.001808  -0.006229  -0.032502
    14  H    0.000480   0.000035  -0.003355  -0.000023   0.001733   0.000036
    15  O   -0.010130   0.001512  -0.000219   0.000186  -0.000784  -0.001439
    16  C   -0.002603   0.003000   0.006046  -0.012092   0.015352   0.023186
    17  H   -0.000001   0.000000  -0.006147   0.000116  -0.000156  -0.000048
    18  H   -0.000002   0.000001  -0.000749   0.003127   0.000096   0.000101
    19  C   -0.002316   0.001528  -0.000391   0.004458  -0.002948  -0.027573
    20  N    0.005889  -0.005062   0.004836   0.000681  -0.000245  -0.001416
    21  H    0.000004  -0.000017  -0.000076  -0.000017   0.000004   0.000287
    22  H   -0.000104   0.000520   0.000011   0.000235  -0.000059   0.003906
    23  H   -0.000061  -0.000096  -0.002530  -0.000120   0.000001  -0.000008
              13         14         15         16         17         18
     1  C   -0.028881  -0.019270  -0.153125  -0.139141   0.001854   0.005275
     2  C    0.012405   0.029816   0.499419   0.284568   0.002669  -0.016850
     3  C   -0.006848   0.328686  -0.081792  -0.076497  -0.033492   0.034954
     4  C    0.030170  -0.019840   0.009701  -0.317464  -0.022998  -0.072343
     5  C   -0.053747  -0.006413  -0.022059   0.080511   0.016515  -0.011032
     6  C    0.378467  -0.003502   0.017884  -0.027276  -0.006497   0.004045
     7  H   -0.006745   0.000480  -0.010130  -0.002603  -0.000001  -0.000002
     8  H   -0.000463   0.000035   0.001512   0.003000   0.000000   0.000001
     9  H   -0.000144  -0.003355  -0.000219   0.006046  -0.006147  -0.000749
    10  H   -0.001808  -0.000023   0.000186  -0.012092   0.000116   0.003127
    11  H   -0.006229   0.001733  -0.000784   0.015352  -0.000156   0.000096
    12  H   -0.032502   0.000036  -0.001439   0.023186  -0.000048   0.000101
    13  H    0.579054  -0.000058  -0.000389  -0.004901   0.000004  -0.000023
    14  H   -0.000058   0.528997  -0.021914   0.017498   0.000010  -0.000185
    15  O   -0.000389  -0.021914   8.226188  -0.018680  -0.000117   0.000147
    16  C   -0.004901   0.017498  -0.018680   5.892223   0.393716   0.398570
    17  H    0.000004   0.000010  -0.000117   0.393716   0.542313  -0.028943
    18  H   -0.000023  -0.000185   0.000147   0.398570  -0.028943   0.553200
    19  C    0.003854   0.001300   0.024851  -0.076661  -0.030512  -0.028819
    20  N   -0.001226   0.002704  -0.085202   0.083128  -0.001184   0.003689
    21  H   -0.000005   0.000006  -0.000477  -0.068932  -0.009847  -0.003607
    22  H    0.000123  -0.000011   0.000117   0.022644   0.004851  -0.004454
    23  H    0.000010  -0.021945  -0.002161  -0.010618   0.002870   0.000146
              19         20         21         22         23
     1  C    0.207880  -0.076939   0.000715  -0.005308   0.002701
     2  C   -0.404635   0.128895  -0.008325   0.026993   0.019072
     3  C    0.164512  -0.023454  -0.003158   0.000996   0.352676
     4  C   -0.005293  -0.021068   0.066488  -0.105301  -0.026895
     5  C    0.055133  -0.103330  -0.018210   0.076021   0.006438
     6  C   -0.138798   0.110421   0.011985  -0.058143   0.000022
     7  H   -0.002316   0.005889   0.000004  -0.000104  -0.000061
     8  H    0.001528  -0.005062  -0.000017   0.000520  -0.000096
     9  H   -0.000391   0.004836  -0.000076   0.000011  -0.002530
    10  H    0.004458   0.000681  -0.000017   0.000235  -0.000120
    11  H   -0.002948  -0.000245   0.000004  -0.000059   0.000001
    12  H   -0.027573  -0.001416   0.000287   0.003906  -0.000008
    13  H    0.003854  -0.001226  -0.000005   0.000123   0.000010
    14  H    0.001300   0.002704   0.000006  -0.000011  -0.021945
    15  O    0.024851  -0.085202  -0.000477   0.000117  -0.002161
    16  C   -0.076661   0.083128  -0.068932   0.022644  -0.010618
    17  H   -0.030512  -0.001184  -0.009847   0.004851   0.002870
    18  H   -0.028819   0.003689  -0.003607  -0.004454   0.000146
    19  C    5.656089   0.003089   0.404568   0.381280  -0.010870
    20  N    0.003089   7.268668  -0.075206  -0.072943  -0.005226
    21  H    0.404568  -0.075206   0.628121  -0.073201  -0.000319
    22  H    0.381280  -0.072943  -0.073201   0.675596   0.000184
    23  H   -0.010870  -0.005226  -0.000319   0.000184   0.503879
 Mulliken charges:
               1
     1  C   -0.299834
     2  C    0.123100
     3  C   -0.367038
     4  C    0.274139
     5  C   -0.498558
     6  C   -0.077917
     7  H    0.160728
     8  H    0.167862
     9  H    0.142192
    10  H    0.136377
    11  H    0.145371
    12  H    0.128003
    13  H    0.139880
    14  H    0.185216
    15  O   -0.381517
    16  C   -0.465579
    17  H    0.175024
    18  H    0.163655
    19  C   -0.179724
    20  N   -0.139498
    21  H    0.149220
    22  H    0.126048
    23  H    0.192849
 Sum of Mulliken charges =  -0.00000
 Mulliken charges with hydrogens summed into heavy atoms:
               1
     1  C    0.028757
     2  C    0.123100
     3  C    0.011027
     4  C    0.416332
     5  C   -0.216811
     6  C    0.189966
    15  O   -0.381517
    16  C   -0.126899
    19  C    0.095544
    20  N   -0.139498
 APT charges:
               1
     1  C   -0.879081
     2  C   -0.483724
     3  C   -0.677889
     4  C   -0.133088
     5  C   -1.169001
     6  C   -0.662963
     7  H    0.473156
     8  H    0.491768
     9  H    0.507395
    10  H    0.483107
    11  H    0.436961
    12  H    0.305152
    13  H    0.564081
    14  H    0.485412
    15  O   -0.094891
    16  C   -1.125649
    17  H    0.497743
    18  H    0.518925
    19  C   -0.678456
    20  N   -0.183274
    21  H    0.580211
    22  H    0.294565
    23  H    0.449541
 Sum of APT charges =  -0.00000
 APT charges with hydrogens summed into heavy atoms:
               1
     1  C    0.085843
     2  C   -0.483724
     3  C    0.257063
     4  C    0.374307
     5  C   -0.248934
     6  C    0.206270
    15  O   -0.094891
    16  C   -0.108981
    19  C    0.196320
    20  N   -0.183274
 Electronic spatial extent (au):  <R**2>=           1282.5423
 Charge=             -0.0000 electrons
 Dipole moment (field-independent basis, Debye):
    X=             -4.9006    Y=              3.3101    Z=              0.2340  Tot=              5.9184
 Quadrupole moment (field-independent basis, Debye-Ang):
   XX=            -67.1063   YY=            -66.4623   ZZ=            -58.6630
   XY=              8.2186   XZ=             -0.7297   YZ=              0.2491
 Traceless Quadrupole moment (field-independent basis, Debye-Ang):
   XX=             -3.0291   YY=             -2.3851   ZZ=              5.4142
   XY=              8.2186   XZ=             -0.7297   YZ=              0.2491
 Octapole moment (field-independent basis, Debye-Ang**2):
  XXX=            -28.8648  YYY=              9.4388  ZZZ=              1.7780  XYY=             -7.5334
  XXY=             10.8045  XXZ=             -4.6550  XZZ=              1.2759  YZZ=             -2.4851
  YYZ=              0.5319  XYZ=              0.8660
 Hexadecapole moment (field-independent basis, Debye-Ang**3):
 XXXX=           -822.3226 YYYY=           -629.6099 ZZZZ=           -359.1584 XXXY=             35.0844
 XXXZ=             -6.2849 YYYX=             14.2821 YYYZ=             -2.3124 ZZZX=              0.4120
 ZZZY=              3.5088 XXYY=           -237.0489 XXZZ=           -184.2962 YYZZ=           -158.4217
 XXYZ=              6.3609 YYXZ=              0.4422 ZZXY=              3.2450
 N-N= 5.659478777484D+02 E-N=-2.159142985035D+03  KE= 4.382845579833D+02
  Exact polarizability:   0.000   0.000   0.000   0.000   0.000   0.000
 Approx polarizability: 227.040  11.753 153.764  36.238  17.940 164.001
 Calling FoFJK, ICntrl=    100127 FMM=F ISym2X=0 I1Cent= 0 IOpClX= 0 NMat=1 NMatS=1 NMatT=0.
 -------------------------------------------------------------------
 Center     Atomic                   Forces (Hartrees/Bohr)
 Number     Number              X              Y              Z
 -------------------------------------------------------------------
      1        6           0.000027849   -0.000085068    0.000123301
      2        6          -0.000187339    0.000104124    0.000076044
      3        6           0.000136806   -0.000141718   -0.000031998
      4        6          -0.000051903    0.000176370   -0.000047385
      5        6          -0.000077220    0.000109016   -0.000033427
      6        6           0.000176813   -0.000118750   -0.000079326
      7        1          -0.000011388   -0.000011952    0.000010463
      8        1          -0.000015165    0.000034995   -0.000006184
      9        1           0.000006831   -0.000048353    0.000010849
     10        1           0.000005652    0.000019269    0.000042875
     11        1          -0.000009158    0.000004657    0.000019273
     12        1          -0.000050006   -0.000043462   -0.000031501
     13        1          -0.000020880    0.000019156    0.000025431
     14        1           0.000026860    0.000001759   -0.000030592
     15        8          -0.000002913    0.000022857   -0.000018853
     16        6          -0.000032357    0.000014251    0.000107829
     17        1           0.000026056    0.000005618   -0.000010921
     18        1          -0.000001045   -0.000020166   -0.000023409
     19        6          -0.000002904   -0.000024077   -0.000075014
     20        7           0.000070016    0.000003133   -0.000029062
     21        1           0.000000417    0.000025795    0.000006930
     22        1          -0.000038100   -0.000042815    0.000045989
     23        1           0.000023080   -0.000004640   -0.000051310
 -------------------------------------------------------------------
 Cartesian Forces:  Max     0.000187339 RMS     0.000062997
 IRC-IRC-IRC-IRC-IRC-IRC-IRC-IRC-IRC-IRC-IRC-IRC-IRC-IRC-IRC-IRC-IRC-IRC
          ******** Start new reaction path calculation ********
 Supplied step size of   0.0500 bohr.
    Integration on MW PES will use step size of   0.1272 sqrt(amu)*bohr.
 Point Number:   0          Path Number:   1
 Calculating another point on the path.
 IRC-IRC-IRC-IRC-IRC-IRC-IRC-IRC-IRC-IRC-IRC-IRC-IRC-IRC-IRC-IRC-IRC-IRC
                          Input orientation:                          
 ---------------------------------------------------------------------
 Center     Atomic      Atomic             Coordinates (Angstroms)
 Number     Number       Type             X           Y           Z
 ---------------------------------------------------------------------
      1          6           0        1.412754    0.974644   -0.637022
      2          6           0        1.305790   -0.347591    0.127824
      3          6           0        0.216086   -0.353238    1.299528
      4          6           0       -1.081485    0.397629    1.015106
      5          6           0       -0.803069    1.775495    0.373797
      6          6           0        0.102880    1.739287   -0.869651
      7          1           0        2.096593    1.583058   -0.026464
      8          1           0        1.937701    0.776041   -1.575880
      9          1           0       -1.574945    0.585206    1.981947
     10          1           0       -1.754151    2.265158    0.128054
     11          1           0       -0.323489    2.403782    1.137146
     12          1           0       -0.432660    1.310744   -1.720658
     13          1           0        0.341044    2.769085   -1.163164
     14          1           0        0.804547    0.154018    2.078108
     15          8           0        2.292356   -1.048831    0.305871
     16          6           0       -2.038211   -0.510573    0.250106
     17          1           0       -2.305784   -1.371583    0.867468
     18          1           0       -2.954536    0.000068   -0.063039
     19          6           0       -1.389332   -1.097203   -1.102055
     20          7           0       -0.120528   -1.505767   -0.746311
     21          1           0       -2.047915   -1.941959   -1.376293
     22          1           0       -1.460826   -0.293836   -1.857661
     23          1           0        0.050855   -1.373587    1.656599
 ---------------------------------------------------------------------
                    Distance matrix (angstroms):
                    1          2          3          4          5
     1  C    0.000000
     2  C    1.531253   0.000000
     3  C    2.635433   1.600118   0.000000
     4  C    3.046917   2.653621   1.525905   0.000000
     5  C    2.563784   3.002546   2.535184   1.545091   0.000000
     6  C    1.534460   2.607108   3.016093   2.599053   1.538902
     7  H    1.100265   2.092028   3.007292   3.548280   2.933476
     8  H    1.093831   2.136462   3.536552   3.996485   3.508842
     9  H    3.992118   3.550566   2.134049   1.101576   2.144464
    10  H    3.504291   4.023642   3.479968   2.174167   1.097596
    11  H    2.864375   3.353108   2.814012   2.148045   1.098837
    12  H    2.166283   3.031364   3.508736   2.956207   2.177140
    13  H    2.155320   3.508711   3.978613   3.520263   2.158348
    14  H    2.900909   2.075202   1.099901   2.178632   2.849261
    15  O    2.399416   1.223417   2.404600   3.738725   4.190833
    16  C    3.860314   3.350203   2.491565   1.524920   2.601342
    17  H    4.647128   3.826108   2.753821   2.156576   3.522210
    18  H    4.511372   4.278747   3.469042   2.197446   2.823433
    19  C    3.515749   3.055847   2.983027   2.609917   3.282413
    20  N    2.918105   2.034666   2.372149   2.765673   3.533721
    21  H    4.585774   4.006459   3.848344   3.482305   4.293241
    22  H    3.369935   3.405761   3.575389   2.979063   3.113548
    23  H    3.553823   2.228157   1.093578   2.197934   3.505921
                    6          7          8          9         10
     6  C    0.000000
     7  H    2.170315   0.000000
     8  H    2.189331   1.754198   0.000000
     9  H    3.504085   4.302281   5.003323   0.000000
    10  H    2.172675   3.913741   4.330200   2.508241   0.000000
    11  H    2.156520   2.807912   3.888834   2.363694   1.756211
    12  H    1.093007   3.056398   2.434230   3.942145   2.464748
    13  H    1.096975   2.404308   2.586865   4.281596   2.512176
    14  H    3.419751   2.853202   3.875897   2.420156   3.847929
    15  O    3.734871   2.660001   2.645170   4.520545   5.233389
    16  C    3.301514   4.642886   4.560425   2.101100   2.792896
    17  H    4.300786   5.376797   5.346906   2.367533   3.751922
    18  H    3.608780   5.293496   5.179267   2.535276   2.570617
    19  C    3.213469   4.526849   3.847428   3.517957   3.598851
    20  N    3.255073   3.869708   3.182945   3.732411   4.201561
    21  H    4.293504   5.605776   4.828301   4.229425   4.477632
    22  H    2.748623   4.419417   3.574077   3.940600   3.252315
    23  H    4.009318   3.969823   4.316250   2.566310   4.339926
                   11         12         13         14         15
    11  H    0.000000
    12  H    3.061649   0.000000
    13  H    2.422080   1.742463   0.000000
    14  H    2.686877   4.159245   4.190376   0.000000
    15  O    4.410691   4.135229   4.532346   2.607920   0.000000
    16  C    3.495794   3.127123   4.291193   3.444496   4.364246
    17  H    4.272657   4.171555   5.317358   3.669778   4.643539
    18  H    3.760411   3.290202   4.442811   4.328847   5.363409
    19  C    4.290331   2.663850   4.236285   4.061047   3.942007
    20  N    4.344327   2.996583   4.319858   3.404114   2.671682
    21  H    5.308152   3.647973   5.286443   4.945962   4.739757
    22  H    4.188024   1.910647   3.620849   4.563198   4.397416
    23  H    3.831250   4.341115   5.019661   1.754794   2.637093
                   16         17         18         19         20
    16  C    0.000000
    17  H    1.092735   0.000000
    18  H    1.094744   1.779930   0.000000
    19  C    1.610441   2.189564   2.175643   0.000000
    20  N    2.379237   2.719859   3.281159   1.379617   0.000000
    21  H    2.166594   2.329439   2.513576   1.105690   2.074117
    22  H    2.196140   3.049889   2.353342   1.105193   2.121386
    23  H    2.662182   2.485252   3.725112   3.124212   2.412638
                   21         22         23
    21  H    0.000000
    22  H    1.814579   0.000000
    23  H    3.731797   3.975056   0.000000
 Symmetry turned off by external request.
 Stoichiometry    C8H13NO
 Framework group  C1[X(C8H13NO)]
 Deg. of freedom    63
 Full point group                 C1      NOp   1
 Rotational constants (GHZ):           1.7638002           1.4083811           1.1266965
 Standard basis: 6-31+G(d,p) (6D, 7F)
   255 basis functions,   411 primitive gaussians,   255 cartesian basis functions
    38 alpha electrons       38 beta electrons
       nuclear repulsion energy       566.2592363530 Hartrees.
 NAtoms=   23 NActive=   23 NUniq=   23 SFac= 1.00D+00 NAtFMM=   60 NAOKFM=F Big=F
 Integral buffers will be    131072 words long.
 Raffenetti 2 integral format.
 Two-electron integral symmetry is turned off.
 One-electron integrals computed using PRISM.
 NBasis=   255 RedAO= T EigKep=  1.60D-05  NBF=   255
 NBsUse=   255 1.00D-06 EigRej= -1.00D+00 NBFU=   255
 Initial guess from the checkpoint file:  "/scratch/Grace/g03/Gau-30433.chk"
 B after Tr=    -0.093888    0.084687    0.000864
         Rot=    1.000000   -0.000006    0.000019   -0.000009 Ang=  -0.00 deg.
 ExpMin= 4.38D-02 ExpMax= 5.48D+03 ExpMxC= 8.25D+02 IAcc=2 IRadAn=         4 AccDes= 0.00D+00
 Harris functional with IExCor=  402 and IRadAn=       4 diagonalized for initial guess.
 HarFok:  IExCor=  402 AccDes= 0.00D+00 IRadAn=         4 IDoV= 1 UseB2=F ITyADJ=14
 ICtDFT=  3500011 ScaDFX=  1.000000  1.000000  1.000000  1.000000
 FoFCou: FMM=F IPFlag=           0 FMFlag=      100000 FMFlg1=           0
         NFxFlg=           0 DoJE=T BraDBF=F KetDBF=T FulRan=T
         wScrn=  0.000000 ICntrl=       500 IOpCl=  0 I1Cent=   200000004 NGrid=           0
         NMat0=    1 NMatS0=      1 NMatT0=    0 NMatD0=    1 NMtDS0=    0 NMtDT0=    0
 Symmetry not used in FoFCou.
 Requested convergence on RMS density matrix=1.00D-08 within 128 cycles.
 Requested convergence on MAX density matrix=1.00D-06.
 Requested convergence on             energy=1.00D-06.
 No special actions if energy rises.
 SCF Done:  E(RB3LYP) =  -442.511973548     A.U. after   14 cycles
            NFock= 14  Conv=0.78D-08     -V/T= 2.0097
 DoSCS=F DFT=T ScalE2(SS,OS)=  1.000000  1.000000
 Range of M.O.s used for correlation:     1   255
 NBasis=   255 NAE=    38 NBE=    38 NFC=     0 NFV=     0
 NROrb=    255 NOA=    38 NOB=    38 NVA=   217 NVB=   217

 **** Warning!!: The largest alpha MO coefficient is  0.50679037D+02


 **** Warning!!: The smallest alpha delta epsilon is  0.77218755D-01

 Symmetrizing basis deriv contribution to polar:
 IMax=3 JMax=2 DiffMx= 0.00D+00
 G2DrvN: will do    24 centers at a time, making    1 passes.
 Calling FoFCou, ICntrl=  3107 FMM=F I1Cent=   0 AccDes= 0.00D+00.
 End of G2Drv F.D. properties file   721 does not exist.
 End of G2Drv F.D. properties file   722 does not exist.
 End of G2Drv F.D. properties file   788 does not exist.
          IDoAtm=11111111111111111111111
          Differentiating once with respect to nuclear coordinates.
 CalDSu exits because no D1Ps are significant.
          There are    72 degrees of freedom in the 1st order CPHF.  IDoFFX=6 NUNeed=     0.
     66 vectors produced by pass  0 Test12= 1.15D-14 1.39D-09 XBig12= 2.90D-01 2.16D-01.
 AX will form    48 AO Fock derivatives at one time.
     66 vectors produced by pass  1 Test12= 1.15D-14 1.39D-09 XBig12= 5.64D-02 3.29D-02.
     66 vectors produced by pass  2 Test12= 1.15D-14 1.39D-09 XBig12= 6.90D-04 4.23D-03.
     66 vectors produced by pass  3 Test12= 1.15D-14 1.39D-09 XBig12= 2.23D-06 1.95D-04.
     66 vectors produced by pass  4 Test12= 1.15D-14 1.39D-09 XBig12= 3.20D-09 5.79D-06.
     57 vectors produced by pass  5 Test12= 1.15D-14 1.39D-09 XBig12= 2.85D-12 1.78D-07.
      7 vectors produced by pass  6 Test12= 1.15D-14 1.39D-09 XBig12= 2.50D-15 4.97D-09.
 InvSVY:  IOpt=1 It=  1 EMax= 7.22D-16
 Solved reduced A of dimension   394 with    72 vectors.
 End of Minotr F.D. properties file   721 does not exist.
 End of Minotr F.D. properties file   722 does not exist.
 End of Minotr F.D. properties file   788 does not exist.
 Calling FoFJK, ICntrl=    100127 FMM=F ISym2X=0 I1Cent= 0 IOpClX= 0 NMat=1 NMatS=1 NMatT=0.
 -------------------------------------------------------------------
 Center     Atomic                   Forces (Hartrees/Bohr)
 Number     Number              X              Y              Z
 -------------------------------------------------------------------
      1        6          -0.000128596   -0.000178785    0.000061382
      2        6          -0.000755647   -0.000678685   -0.001102905
      3        6          -0.000287062   -0.000342501   -0.000079381
      4        6          -0.000242552    0.000200456   -0.000032322
      5        6          -0.000107056    0.000130953    0.000008151
      6        6           0.000132739   -0.000059452   -0.000063660
      7        1          -0.000034511   -0.000061862    0.000036689
      8        1          -0.000018747    0.000059319   -0.000008507
      9        1           0.000010147   -0.000046015    0.000021567
     10        1           0.000006113    0.000026618    0.000049393
     11        1          -0.000006354    0.000001454    0.000023175
     12        1          -0.000056939   -0.000020777   -0.000035292
     13        1          -0.000013986    0.000024507    0.000040212
     14        1           0.000049750   -0.000010620   -0.000141928
     15        8          -0.000245072   -0.000052378   -0.000044019
     16        6          -0.000229264    0.000117032    0.000041732
     17        1          -0.000001125    0.000020231   -0.000010519
     18        1          -0.000016584   -0.000008946   -0.000026180
     19        6           0.000503368    0.000293224    0.000477240
     20        7           0.001294169    0.000602119    0.000713675
     21        1           0.000141094    0.000027472    0.000021220
     22        1           0.000012499   -0.000048418    0.000070010
     23        1          -0.000006383    0.000005054   -0.000019733
 -------------------------------------------------------------------
 Cartesian Forces:  Max     0.001294169 RMS     0.000294495
 IRC-IRC-IRC-IRC-IRC-IRC-IRC-IRC-IRC-IRC-IRC-IRC-IRC-IRC-IRC-IRC-IRC-IRC
 Pt  1 Step number   1 out of a maximum of 100
 Point Number:   1          Path Number:   1
   CHANGE IN THE REACTION COORDINATE =    0.12723
   NET REACTION COORDINATE UP TO THIS POINT =    0.12723
  # OF POINTS ALONG THE PATH =   1
  # OF STEPS =   1

 Calculating another point on the path.
 IRC-IRC-IRC-IRC-IRC-IRC-IRC-IRC-IRC-IRC-IRC-IRC-IRC-IRC-IRC-IRC-IRC-IRC
                          Input orientation:                          
 ---------------------------------------------------------------------
 Center     Atomic      Atomic             Coordinates (Angstroms)
 Number     Number       Type             X           Y           Z
 ---------------------------------------------------------------------
      1          6           0        1.411446    0.973760   -0.637298
      2          6           0        1.300797   -0.353652    0.118751
      3          6           0        0.212826   -0.355133    1.298491
      4          6           0       -1.082999    0.398068    1.015269
      5          6           0       -0.803345    1.775960    0.374104
      6          6           0        0.102652    1.739482   -0.869646
      7          1           0        2.094479    1.578306   -0.022296
      8          1           0        1.937889    0.779251   -1.576221
      9          1           0       -1.574717    0.585241    1.983104
     10          1           0       -1.754116    2.266423    0.128996
     11          1           0       -0.323070    2.403660    1.137522
     12          1           0       -0.433401    1.312136   -1.721002
     13          1           0        0.341610    2.769424   -1.162074
     14          1           0        0.809133    0.153978    2.069495
     15          8           0        2.290821   -1.049233    0.305626
     16          6           0       -2.039764   -0.509738    0.249816
     17          1           0       -2.307683   -1.370311    0.867805
     18          1           0       -2.956282    0.000679   -0.063144
     19          6           0       -1.384933   -1.094771   -1.097489
     20          7           0       -0.112195   -1.501513   -0.741556
     21          1           0       -2.035811   -1.943894   -1.375006
     22          1           0       -1.456683   -0.294323   -1.855581
     23          1           0        0.047625   -1.373827    1.659464
 ---------------------------------------------------------------------
                    Distance matrix (angstroms):
                    1          2          3          4          5
     1  C    0.000000
     2  C    1.531625   0.000000
     3  C    2.636271   1.604827   0.000000
     4  C    3.047073   2.655431   1.525349   0.000000
     5  C    2.563544   3.004641   2.535479   1.545278   0.000000
     6  C    1.534034   2.606471   3.016682   2.599628   1.539179
     7  H    1.100107   2.093391   3.003877   3.544837   2.931481
     8  H    1.093870   2.135951   3.539299   3.998360   3.508782
     9  H    3.991819   3.553296   2.132676   1.101601   2.145160
    10  H    3.504137   4.024599   3.479819   2.174081   1.097542
    11  H    2.864114   3.358216   2.814966   2.148217   1.098854
    12  H    2.166189   3.027703   3.509235   2.957140   2.177489
    13  H    2.155075   3.509153   3.979173   3.520463   2.158178
    14  H    2.891634   2.074806   1.099646   2.179710   2.846974
    15  O    2.398938   1.224296   2.405331   3.739109   4.190497
    16  C    3.859869   3.346773   2.489535   1.524936   2.601652
    17  H    4.646711   3.823062   2.751189   2.156098   3.522186
    18  H    4.511495   4.275671   3.467549   2.197744   2.824526
    19  C    3.508609   3.040008   2.973318   2.604512   3.277946
    20  N    2.908492   2.013520   2.362545   2.763568   3.530469
    21  H    4.576079   3.986620   3.837723   3.479376   4.291348
    22  H    3.364285   3.391933   3.569192   2.976714   3.111979
    23  H    3.556162   2.232710   1.093312   2.198388   3.506773
                    6          7          8          9         10
     6  C    0.000000
     7  H    2.170566   0.000000
     8  H    2.188467   1.754335   0.000000
     9  H    3.504857   4.297767   5.004481   0.000000
    10  H    2.173141   3.912554   4.330167   2.509238   0.000000
    11  H    2.156640   2.805518   3.887807   2.363954   1.756090
    12  H    1.093062   3.057225   2.434737   3.943523   2.465247
    13  H    1.096994   2.406326   2.584649   4.281951   2.512357
    14  H    3.413427   2.838382   3.867337   2.424085   3.846844
    15  O    3.734471   2.655191   2.647501   4.519714   5.233191
    16  C    3.301837   4.639605   4.562634   2.102269   2.793432
    17  H    4.301076   5.372676   5.349650   2.367554   3.752081
    18  H    3.609841   5.291574   5.181552   2.537235   2.572104
    19  C    3.209020   4.517487   3.844774   3.514045   3.596970
    20  N    3.250633   3.856427   3.178269   3.730588   4.201323
    21  H    4.289017   5.594194   4.821442   4.229188   4.479749
    22  H    2.745897   4.413437   3.571235   3.939933   3.253373
    23  H    4.011498   3.966486   4.321863   2.564114   4.340510
                   11         12         13         14         15
    11  H    0.000000
    12  H    3.061823   0.000000
    13  H    2.421513   1.742622   0.000000
    14  H    2.685429   4.153683   4.183560   0.000000
    15  O    4.409869   4.135779   4.531634   2.598913   0.000000
    16  C    3.496133   3.127898   4.291535   3.444990   4.364417
    17  H    4.272504   4.172574   5.317571   3.671791   4.643853
    18  H    3.761611   3.291403   4.444062   4.330126   5.363804
    19  C    4.285073   2.662213   4.232862   4.050072   3.934714
    20  N    4.338869   2.996516   4.315516   3.389911   2.660006
    21  H    5.305423   3.645430   5.283260   4.935520   4.727017
    22  H    4.186032   1.909431   3.619579   4.554242   4.391411
    23  H    3.831351   4.344345   5.021357   1.755621   2.640107
                   16         17         18         19         20
    16  C    0.000000
    17  H    1.092830   0.000000
    18  H    1.094748   1.779595   0.000000
    19  C    1.608198   2.188555   2.176929   0.000000
    20  N    2.383686   2.725330   3.287196   1.382747   0.000000
    21  H    2.167226   2.330904   2.519844   1.105291   2.072983
    22  H    2.195242   3.049391   2.355558   1.104794   2.122736
    23  H    2.662884   2.484796   3.725600   3.119437   2.409718
                   21         22         23
    21  H    0.000000
    22  H    1.813127   0.000000
    23  H    3.724740   3.972885   0.000000
 Symmetry turned off by external request.
 Stoichiometry    C8H13NO
 Framework group  C1[X(C8H13NO)]
 Deg. of freedom    63
 Full point group                 C1      NOp   1
 Rotational constants (GHZ):           1.7672501           1.4108148           1.1281935
 Standard basis: 6-31+G(d,p) (6D, 7F)
   255 basis functions,   411 primitive gaussians,   255 cartesian basis functions
    38 alpha electrons       38 beta electrons
       nuclear repulsion energy       566.5789664132 Hartrees.
 NAtoms=   23 NActive=   23 NUniq=   23 SFac= 1.00D+00 NAtFMM=   60 NAOKFM=F Big=F
 Integral buffers will be    131072 words long.
 Raffenetti 2 integral format.
 Two-electron integral symmetry is turned off.
 One-electron integrals computed using PRISM.
 NBasis=   255 RedAO= T EigKep=  1.59D-05  NBF=   255
 NBsUse=   255 1.00D-06 EigRej= -1.00D+00 NBFU=   255
 Initial guess from the checkpoint file:  "/scratch/Grace/g03/Gau-30433.chk"
 B after Tr=     0.000156    0.000009    0.000060
         Rot=    1.000000   -0.000013    0.000009   -0.000013 Ang=  -0.00 deg.
 ExpMin= 4.38D-02 ExpMax= 5.48D+03 ExpMxC= 8.25D+02 IAcc=2 IRadAn=         4 AccDes= 0.00D+00
 Harris functional with IExCor=  402 and IRadAn=       4 diagonalized for initial guess.
 HarFok:  IExCor=  402 AccDes= 0.00D+00 IRadAn=         4 IDoV= 1 UseB2=F ITyADJ=14
 ICtDFT=  3500011 ScaDFX=  1.000000  1.000000  1.000000  1.000000
 FoFCou: FMM=F IPFlag=           0 FMFlag=      100000 FMFlg1=           0
         NFxFlg=           0 DoJE=T BraDBF=F KetDBF=T FulRan=T
         wScrn=  0.000000 ICntrl=       500 IOpCl=  0 I1Cent=   200000004 NGrid=           0
         NMat0=    1 NMatS0=      1 NMatT0=    0 NMatD0=    1 NMtDS0=    0 NMtDT0=    0
 Symmetry not used in FoFCou.
 Requested convergence on RMS density matrix=1.00D-08 within 128 cycles.
 Requested convergence on MAX density matrix=1.00D-06.
 Requested convergence on             energy=1.00D-06.
 No special actions if energy rises.
 SCF Done:  E(RB3LYP) =  -442.512110870     A.U. after   15 cycles
            NFock= 15  Conv=0.20D-08     -V/T= 2.0097
 DoSCS=F DFT=T ScalE2(SS,OS)=  1.000000  1.000000
 Range of M.O.s used for correlation:     1   255
 NBasis=   255 NAE=    38 NBE=    38 NFC=     0 NFV=     0
 NROrb=    255 NOA=    38 NOB=    38 NVA=   217 NVB=   217

 **** Warning!!: The largest alpha MO coefficient is  0.53593033D+02


 **** Warning!!: The smallest alpha delta epsilon is  0.77789388D-01

 Symmetrizing basis deriv contribution to polar:
 IMax=3 JMax=2 DiffMx= 0.00D+00
 G2DrvN: will do    24 centers at a time, making    1 passes.
 Calling FoFCou, ICntrl=  3107 FMM=F I1Cent=   0 AccDes= 0.00D+00.
 End of G2Drv F.D. properties file   721 does not exist.
 End of G2Drv F.D. properties file   722 does not exist.
 End of G2Drv F.D. properties file   788 does not exist.
          IDoAtm=11111111111111111111111
          Differentiating once with respect to nuclear coordinates.
 CalDSu exits because no D1Ps are significant.
          There are    72 degrees of freedom in the 1st order CPHF.  IDoFFX=6 NUNeed=     0.
     66 vectors produced by pass  0 Test12= 1.15D-14 1.39D-09 XBig12= 3.03D-01 2.17D-01.
 AX will form    48 AO Fock derivatives at one time.
     66 vectors produced by pass  1 Test12= 1.15D-14 1.39D-09 XBig12= 5.69D-02 3.26D-02.
     66 vectors produced by pass  2 Test12= 1.15D-14 1.39D-09 XBig12= 7.10D-04 4.24D-03.
     66 vectors produced by pass  3 Test12= 1.15D-14 1.39D-09 XBig12= 2.25D-06 1.96D-04.
     66 vectors produced by pass  4 Test12= 1.15D-14 1.39D-09 XBig12= 3.20D-09 6.04D-06.
     57 vectors produced by pass  5 Test12= 1.15D-14 1.39D-09 XBig12= 2.88D-12 1.89D-07.
      7 vectors produced by pass  6 Test12= 1.15D-14 1.39D-09 XBig12= 2.54D-15 4.94D-09.
 InvSVY:  IOpt=1 It=  1 EMax= 9.99D-16
 Solved reduced A of dimension   394 with    72 vectors.
 End of Minotr F.D. properties file   721 does not exist.
 End of Minotr F.D. properties file   722 does not exist.
 End of Minotr F.D. properties file   788 does not exist.
 Calling FoFJK, ICntrl=    100127 FMM=F ISym2X=0 I1Cent= 0 IOpClX= 0 NMat=1 NMatS=1 NMatT=0.
 -------------------------------------------------------------------
 Center     Atomic                   Forces (Hartrees/Bohr)
 Number     Number              X              Y              Z
 -------------------------------------------------------------------
      1        6          -0.000335963   -0.000192565   -0.000096727
      2        6          -0.001251895   -0.001634515   -0.002450788
      3        6          -0.000881943   -0.000435164   -0.000152406
      4        6          -0.000377460    0.000066135    0.000042373
      5        6          -0.000049653    0.000068311    0.000078059
      6        6          -0.000090702    0.000097705    0.000021870
      7        1          -0.000049533   -0.000104019    0.000075825
      8        1           0.000001564    0.000061391   -0.000002795
      9        1           0.000005354    0.000007975    0.000021652
     10        1           0.000001498    0.000017143    0.000013152
     11        1           0.000008168   -0.000003820    0.000006009
     12        1          -0.000013785    0.000038117   -0.000007827
     13        1           0.000013595    0.000008760    0.000023109
     14        1           0.000072260   -0.000011703   -0.000206955
     15        8          -0.000522780   -0.000155928   -0.000068977
     16        6          -0.000383254    0.000202305   -0.000113210
     17        1          -0.000048360    0.000028551    0.000004721
     18        1          -0.000033848    0.000019843    0.000000651
     19        6           0.001086412    0.000646550    0.001165288
     20        7           0.002543118    0.001301592    0.001503364
     21        1           0.000278573   -0.000022623    0.000027807
     22        1           0.000098967   -0.000011649    0.000043617
     23        1          -0.000070332    0.000007606    0.000072188
 -------------------------------------------------------------------
 Cartesian Forces:  Max     0.002543118 RMS     0.000609541
 IRC-IRC-IRC-IRC-IRC-IRC-IRC-IRC-IRC-IRC-IRC-IRC-IRC-IRC-IRC-IRC-IRC-IRC
 Pt  2 Step number   1 out of a maximum of 100
 Point Number:   2          Path Number:   1
   CHANGE IN THE REACTION COORDINATE =    0.12699
   NET REACTION COORDINATE UP TO THIS POINT =    0.25421
  # OF POINTS ALONG THE PATH =   2
  # OF STEPS =   1

 Calculating another point on the path.
 IRC-IRC-IRC-IRC-IRC-IRC-IRC-IRC-IRC-IRC-IRC-IRC-IRC-IRC-IRC-IRC-IRC-IRC
                          Input orientation:                          
 ---------------------------------------------------------------------
 Center     Atomic      Atomic             Coordinates (Angstroms)
 Number     Number       Type             X           Y           Z
 ---------------------------------------------------------------------
      1          6           0        1.410140    0.973006   -0.637755
      2          6           0        1.295982   -0.359873    0.109447
      3          6           0        0.209418   -0.356804    1.297844
      4          6           0       -1.084443    0.398272    1.015451
      5          6           0       -0.803534    1.776175    0.374398
      6          6           0        0.102309    1.739881   -0.869551
      7          1           0        2.092544    1.573689   -0.018559
      8          1           0        1.938007    0.782160   -1.576686
      9          1           0       -1.574674    0.585660    1.984033
     10          1           0       -1.754084    2.267134    0.129573
     11          1           0       -0.322735    2.403468    1.137813
     12          1           0       -0.434016    1.313941   -1.721396
     13          1           0        0.342262    2.769889   -1.160954
     14          1           0        0.813388    0.154353    2.061105
     15          8           0        2.289365   -1.049707    0.305432
     16          6           0       -2.041223   -0.508973    0.249340
     17          1           0       -2.309870   -1.369042    0.867945
     18          1           0       -2.957826    0.001661   -0.063062
     19          6           0       -1.380670   -1.092231   -1.093030
     20          7           0       -0.103973   -1.497241   -0.736613
     21          1           0       -2.023667   -1.945725   -1.374025
     22          1           0       -1.452167   -0.294716   -1.853781
     23          1           0        0.044283   -1.373695    1.663160
 ---------------------------------------------------------------------
                    Distance matrix (angstroms):
                    1          2          3          4          5
     1  C    0.000000
     2  C    1.532289   0.000000
     3  C    2.637551   1.610254   0.000000
     4  C    3.047352   2.657452   1.524455   0.000000
     5  C    2.563179   3.006803   2.535434   1.545469   0.000000
     6  C    1.533704   2.606196   3.017476   2.600294   1.539246
     7  H    1.099954   2.095128   3.000981   3.541756   2.929622
     8  H    1.093919   2.135294   3.542342   4.000219   3.508681
     9  H    3.991607   3.556511   2.131215   1.101631   2.145439
    10  H    3.503694   4.025478   3.479259   2.173900   1.097509
    11  H    2.863865   3.363605   2.815653   2.148484   1.098848
    12  H    2.165971   3.024324   3.510158   2.958351   2.177741
    13  H    2.154737   3.509831   3.979893   3.520908   2.158152
    14  H    2.882733   2.075162   1.099377   2.180516   2.844244
    15  O    2.398751   1.225190   2.406487   3.739432   4.190035
    16  C    3.859418   3.343462   2.487549   1.524942   2.601810
    17  H    4.646590   3.820459   2.748863   2.155650   3.522077
    18  H    4.511421   4.272628   3.465833   2.197739   2.825110
    19  C    3.501585   3.024361   2.964036   2.599046   3.273252
    20  N    2.899040   1.992309   2.353259   2.761163   3.526894
    21  H    4.566412   3.966823   3.827561   3.476501   4.289317
    22  H    3.358369   3.377992   3.563350   2.974550   3.110321
    23  H    3.559042   2.237992   1.093065   2.198503   3.507332
                    6          7          8          9         10
     6  C    0.000000
     7  H    2.170908   0.000000
     8  H    2.187934   1.754469   0.000000
     9  H    3.505345   4.293608   5.005623   0.000000
    10  H    2.173117   3.911439   4.329896   2.509695   0.000000
    11  H    2.156507   2.803445   3.886915   2.363867   1.756102
    12  H    1.093028   3.057880   2.435205   3.944832   2.465206
    13  H    1.097001   2.408205   2.582693   4.282108   2.512546
    14  H    3.407092   2.824139   3.859072   2.427922   3.845331
    15  O    3.734381   2.650644   2.649822   4.519173   5.232766
    16  C    3.302119   4.636516   4.564611   2.103580   2.793486
    17  H    4.301500   5.369060   5.352416   2.367915   3.751782
    18  H    3.610577   5.289565   5.183572   2.538654   2.572639
    19  C    3.204688   4.508307   3.841989   3.510167   3.594374
    20  N    3.246410   3.843293   3.173495   3.728720   4.200436
    21  H    4.284619   5.582720   4.814280   4.229191   4.481256
    22  H    2.743117   4.407262   3.567874   3.939402   3.253908
    23  H    4.014019   3.963663   4.327875   2.561845   4.340696
                   11         12         13         14         15
    11  H    0.000000
    12  H    3.061786   0.000000
    13  H    2.420912   1.742552   0.000000
    14  H    2.683610   4.148250   4.176680   0.000000
    15  O    4.409121   4.136625   4.531094   2.590494   0.000000
    16  C    3.496412   3.128887   4.291954   3.445475   4.364577
    17  H    4.272396   4.173957   5.317987   3.674112   4.644498
    18  H    3.762245   3.292684   4.445114   4.330988   5.364157
    19  C    4.279696   2.660951   4.229548   4.039360   3.927679
    20  N    4.333228   2.996910   4.311333   3.375876   2.648436
    21  H    5.302639   3.643224   5.280155   4.925376   4.714411
    22  H    4.183952   1.908386   3.618258   4.545408   4.385348
    23  H    3.831142   4.348261   5.023316   1.756363   2.643632
                   16         17         18         19         20
    16  C    0.000000
    17  H    1.092960   0.000000
    18  H    1.094762   1.779171   0.000000
    19  C    1.605764   2.187570   2.178269   0.000000
    20  N    2.387827   2.730756   3.293153   1.386009   0.000000
    21  H    2.167921   2.332575   2.526576   1.104924   2.071873
    22  H    2.194541   3.049201   2.358288   1.104483   2.124090
    23  H    2.663825   2.484839   3.726138   3.115493   2.407521
                   21         22         23
    21  H    0.000000
    22  H    1.811796   0.000000
    23  H    3.718620   3.971452   0.000000
 Symmetry turned off by external request.
 Stoichiometry    C8H13NO
 Framework group  C1[X(C8H13NO)]
 Deg. of freedom    63
 Full point group                 C1      NOp   1
 Rotational constants (GHZ):           1.7706509           1.4131303           1.1296650
 Standard basis: 6-31+G(d,p) (6D, 7F)
   255 basis functions,   411 primitive gaussians,   255 cartesian basis functions
    38 alpha electrons       38 beta electrons
       nuclear repulsion energy       566.8893994923 Hartrees.
 NAtoms=   23 NActive=   23 NUniq=   23 SFac= 1.00D+00 NAtFMM=   60 NAOKFM=F Big=F
 Integral buffers will be    131072 words long.
 Raffenetti 2 integral format.
 Two-electron integral symmetry is turned off.
 One-electron integrals computed using PRISM.
 NBasis=   255 RedAO= T EigKep=  1.58D-05  NBF=   255
 NBsUse=   255 1.00D-06 EigRej= -1.00D+00 NBFU=   255
 Initial guess from the checkpoint file:  "/scratch/Grace/g03/Gau-30433.chk"
 B after Tr=     0.000155    0.000027    0.000052
         Rot=    1.000000   -0.000007    0.000016   -0.000011 Ang=  -0.00 deg.
 ExpMin= 4.38D-02 ExpMax= 5.48D+03 ExpMxC= 8.25D+02 IAcc=2 IRadAn=         4 AccDes= 0.00D+00
 Harris functional with IExCor=  402 and IRadAn=       4 diagonalized for initial guess.
 HarFok:  IExCor=  402 AccDes= 0.00D+00 IRadAn=         4 IDoV= 1 UseB2=F ITyADJ=14
 ICtDFT=  3500011 ScaDFX=  1.000000  1.000000  1.000000  1.000000
 FoFCou: FMM=F IPFlag=           0 FMFlag=      100000 FMFlg1=           0
         NFxFlg=           0 DoJE=T BraDBF=F KetDBF=T FulRan=T
         wScrn=  0.000000 ICntrl=       500 IOpCl=  0 I1Cent=   200000004 NGrid=           0
         NMat0=    1 NMatS0=      1 NMatT0=    0 NMatD0=    1 NMtDS0=    0 NMtDT0=    0
 Symmetry not used in FoFCou.
 Requested convergence on RMS density matrix=1.00D-08 within 128 cycles.
 Requested convergence on MAX density matrix=1.00D-06.
 Requested convergence on             energy=1.00D-06.
 No special actions if energy rises.
 SCF Done:  E(RB3LYP) =  -442.512351425     A.U. after   14 cycles
            NFock= 14  Conv=0.75D-08     -V/T= 2.0097
 DoSCS=F DFT=T ScalE2(SS,OS)=  1.000000  1.000000
 Range of M.O.s used for correlation:     1   255
 NBasis=   255 NAE=    38 NBE=    38 NFC=     0 NFV=     0
 NROrb=    255 NOA=    38 NOB=    38 NVA=   217 NVB=   217

 **** Warning!!: The largest alpha MO coefficient is  0.56414444D+02


 **** Warning!!: The smallest alpha delta epsilon is  0.78461562D-01

 Symmetrizing basis deriv contribution to polar:
 IMax=3 JMax=2 DiffMx= 0.00D+00
 G2DrvN: will do    24 centers at a time, making    1 passes.
 Calling FoFCou, ICntrl=  3107 FMM=F I1Cent=   0 AccDes= 0.00D+00.
 End of G2Drv F.D. properties file   721 does not exist.
 End of G2Drv F.D. properties file   722 does not exist.
 End of G2Drv F.D. properties file   788 does not exist.
          IDoAtm=11111111111111111111111
          Differentiating once with respect to nuclear coordinates.
 CalDSu exits because no D1Ps are significant.
          There are    72 degrees of freedom in the 1st order CPHF.  IDoFFX=6 NUNeed=     0.
     66 vectors produced by pass  0 Test12= 1.15D-14 1.39D-09 XBig12= 3.15D-01 2.33D-01.
 AX will form    48 AO Fock derivatives at one time.
     66 vectors produced by pass  1 Test12= 1.15D-14 1.39D-09 XBig12= 5.74D-02 3.22D-02.
     66 vectors produced by pass  2 Test12= 1.15D-14 1.39D-09 XBig12= 7.29D-04 4.27D-03.
     66 vectors produced by pass  3 Test12= 1.15D-14 1.39D-09 XBig12= 2.26D-06 1.96D-04.
     66 vectors produced by pass  4 Test12= 1.15D-14 1.39D-09 XBig12= 3.21D-09 6.28D-06.
     57 vectors produced by pass  5 Test12= 1.15D-14 1.39D-09 XBig12= 2.91D-12 1.98D-07.
      7 vectors produced by pass  6 Test12= 1.15D-14 1.39D-09 XBig12= 2.59D-15 4.91D-09.
 InvSVY:  IOpt=1 It=  1 EMax= 9.99D-16
 Solved reduced A of dimension   394 with    72 vectors.
 End of Minotr F.D. properties file   721 does not exist.
 End of Minotr F.D. properties file   722 does not exist.
 End of Minotr F.D. properties file   788 does not exist.
 Calling FoFJK, ICntrl=    100127 FMM=F ISym2X=0 I1Cent= 0 IOpClX= 0 NMat=1 NMatS=1 NMatT=0.
 -------------------------------------------------------------------
 Center     Atomic                   Forces (Hartrees/Bohr)
 Number     Number              X              Y              Z
 -------------------------------------------------------------------
      1        6          -0.000530732   -0.000304428   -0.000178329
      2        6          -0.001984162   -0.002606113   -0.003901933
      3        6          -0.001386920   -0.000657313   -0.000169890
      4        6          -0.000587634    0.000076860    0.000068757
      5        6          -0.000079873    0.000077221    0.000119831
      6        6          -0.000137059    0.000172873    0.000040452
      7        1          -0.000070600   -0.000163034    0.000119338
      8        1           0.000000601    0.000096022   -0.000011786
      9        1           0.000003520    0.000012740    0.000032052
     10        1           0.000000876    0.000022564    0.000019711
     11        1           0.000010397   -0.000007545    0.000010228
     12        1          -0.000020792    0.000064586   -0.000013686
     13        1           0.000021790    0.000016821    0.000040679
     14        1           0.000126630   -0.000000483   -0.000312919
     15        8          -0.000812998   -0.000243519   -0.000097249
     16        6          -0.000581295    0.000303151   -0.000207239
     17        1          -0.000075905    0.000042881    0.000002820
     18        1          -0.000050554    0.000033282    0.000000682
     19        6           0.001705881    0.001036692    0.001782736
     20        7           0.003968882    0.002070474    0.002431202
     21        1           0.000430820   -0.000041756    0.000035004
     22        1           0.000156873   -0.000015060    0.000063659
     23        1          -0.000107747    0.000013083    0.000125879
 -------------------------------------------------------------------
 Cartesian Forces:  Max     0.003968882 RMS     0.000962541
 IRC-IRC-IRC-IRC-IRC-IRC-IRC-IRC-IRC-IRC-IRC-IRC-IRC-IRC-IRC-IRC-IRC-IRC
 Pt  3 Step number   1 out of a maximum of 100
 Point Number:   3          Path Number:   1
   CHANGE IN THE REACTION COORDINATE =    0.12719
   NET REACTION COORDINATE UP TO THIS POINT =    0.38140
  # OF POINTS ALONG THE PATH =   3
  # OF STEPS =   1

 Calculating another point on the path.
 IRC-IRC-IRC-IRC-IRC-IRC-IRC-IRC-IRC-IRC-IRC-IRC-IRC-IRC-IRC-IRC-IRC-IRC
                          Input orientation:                          
 ---------------------------------------------------------------------
 Center     Atomic      Atomic             Coordinates (Angstroms)
 Number     Number       Type             X           Y           Z
 ---------------------------------------------------------------------
      1          6           0        1.408845    0.972256   -0.638213
      2          6           0        1.291141   -0.366170    0.100017
      3          6           0        0.206050   -0.358390    1.297415
      4          6           0       -1.085853    0.398437    1.015628
      5          6           0       -0.803726    1.776347    0.374685
      6          6           0        0.101984    1.740304   -0.869447
      7          1           0        2.090689    1.569060   -0.014949
      8          1           0        1.938049    0.784966   -1.577171
      9          1           0       -1.574661    0.586051    1.984925
     10          1           0       -1.754074    2.267755    0.130129
     11          1           0       -0.322452    2.403252    1.138111
     12          1           0       -0.434602    1.315811   -1.721807
     13          1           0        0.342913    2.770398   -1.159765
     14          1           0        0.817631    0.154869    2.052747
     15          8           0        2.287907   -1.050153    0.305261
     16          6           0       -2.042604   -0.508255    0.248819
     17          1           0       -2.312017   -1.367837    0.867996
     18          1           0       -2.959276    0.002637   -0.063008
     19          6           0       -1.376502   -1.089692   -1.088744
     20          7           0       -0.095806   -1.492936   -0.731558
     21          1           0       -2.011615   -1.947430   -1.373229
     22          1           0       -1.447663   -0.295071   -1.852081
     23          1           0        0.041110   -1.373486    1.667000
 ---------------------------------------------------------------------
                    Distance matrix (angstroms):
                    1          2          3          4          5
     1  C    0.000000
     2  C    1.533044   0.000000
     3  C    2.638938   1.615935   0.000000
     4  C    3.047619   2.659524   1.523550   0.000000
     5  C    2.562810   3.009035   2.535386   1.545653   0.000000
     6  C    1.533379   2.605991   3.018383   2.600975   1.539309
     7  H    1.099793   2.097048   2.998204   3.538766   2.927870
     8  H    1.093973   2.134611   3.545466   4.001999   3.508548
     9  H    3.991405   3.559834   2.129687   1.101666   2.145698
    10  H    3.503245   4.026388   3.478689   2.173702   1.097474
    11  H    2.863646   3.369128   2.816266   2.148736   1.098842
    12  H    2.165757   3.020976   3.511279   2.959603   2.177986
    13  H    2.154424   3.510591   3.980676   3.521350   2.158114
    14  H    2.873834   2.075776   1.099087   2.181328   2.841458
    15  O    2.398548   1.226173   2.407703   3.739691   4.189525
    16  C    3.858917   3.340087   2.485650   1.524944   2.601935
    17  H    4.646452   3.817836   2.746642   2.155225   3.521959
    18  H    4.511265   4.269502   3.464157   2.197687   2.825601
    19  C    3.494677   3.008813   2.955170   2.593720   3.268620
    20  N    2.889613   1.970975   2.344151   2.758648   3.523228
    21  H    4.556793   3.947028   3.817777   3.473724   4.287273
    22  H    3.352496   3.364044   3.557822   2.972475   3.108684
    23  H    3.561912   2.243368   1.092803   2.198645   3.507888
                    6          7          8          9         10
     6  C    0.000000
     7  H    2.171276   0.000000
     8  H    2.187391   1.754606   0.000000
     9  H    3.505835   4.289591   5.006718   0.000000
    10  H    2.173087   3.910425   4.329585   2.510097   0.000000
    11  H    2.156371   2.801548   3.886061   2.363755   1.756112
    12  H    1.092994   3.058528   2.435608   3.946156   2.465131
    13  H    1.097007   2.410091   2.580819   4.282235   2.512734
    14  H    3.400731   2.809979   3.850800   2.431784   3.843750
    15  O    3.734280   2.646074   2.652096   4.518613   5.232284
    16  C    3.302392   4.633456   4.566427   2.104884   2.793487
    17  H    4.301936   5.365517   5.355041   2.368312   3.751437
    18  H    3.611253   5.287546   5.185414   2.539992   2.573048
    19  C    3.200452   4.499268   3.839160   3.506396   3.591749
    20  N    3.242218   3.830158   3.168669   3.726724   4.199423
    21  H    4.280243   5.571312   4.807018   4.229261   4.482655
    22  H    2.740388   4.401133   3.564422   3.938923   3.254400
    23  H    4.016585   3.960846   4.333813   2.559604   4.340886
                   11         12         13         14         15
    11  H    0.000000
    12  H    3.061738   0.000000
    13  H    2.420278   1.742482   0.000000
    14  H    2.681710   4.142840   4.169722   0.000000
    15  O    4.408358   4.137492   4.530553   2.582150   0.000000
    16  C    3.496660   3.129896   4.292361   3.445987   4.364649
    17  H    4.272288   4.175372   5.318408   3.676542   4.645094
    18  H    3.762776   3.293937   4.446103   4.331815   5.364413
    19  C    4.274408   2.659772   4.226314   4.028910   3.920805
    20  N    4.327506   2.997404   4.307186   3.361842   2.636881
    21  H    5.299861   3.641046   5.277051   4.915445   4.701949
    22  H    4.181901   1.907408   3.616983   4.536703   4.379356
    23  H    3.830881   4.352314   5.025282   1.757172   2.647069
                   16         17         18         19         20
    16  C    0.000000
    17  H    1.093090   0.000000
    18  H    1.094777   1.778739   0.000000
    19  C    1.603382   2.186637   2.179562   0.000000
    20  N    2.391810   2.736021   3.298963   1.389378   0.000000
    21  H    2.168692   2.334364   2.533278   1.104542   2.070900
    22  H    2.193896   3.049057   2.361014   1.104160   2.125551
    23  H    2.664906   2.485085   3.726790   3.111959   2.405430
                   21         22         23
    21  H    0.000000
    22  H    1.810422   0.000000
    23  H    3.712962   3.970309   0.000000
 Symmetry turned off by external request.
 Stoichiometry    C8H13NO
 Framework group  C1[X(C8H13NO)]
 Deg. of freedom    63
 Full point group                 C1      NOp   1
 Rotational constants (GHZ):           1.7740347           1.4153864           1.1311298
 Standard basis: 6-31+G(d,p) (6D, 7F)
   255 basis functions,   411 primitive gaussians,   255 cartesian basis functions
    38 alpha electrons       38 beta electrons
       nuclear repulsion energy       567.1961041021 Hartrees.
 NAtoms=   23 NActive=   23 NUniq=   23 SFac= 1.00D+00 NAtFMM=   60 NAOKFM=F Big=F
 Integral buffers will be    131072 words long.
 Raffenetti 2 integral format.
 Two-electron integral symmetry is turned off.
 One-electron integrals computed using PRISM.
 NBasis=   255 RedAO= T EigKep=  1.57D-05  NBF=   255
 NBsUse=   255 1.00D-06 EigRej= -1.00D+00 NBFU=   255
 Initial guess from the checkpoint file:  "/scratch/Grace/g03/Gau-30433.chk"
 B after Tr=     0.000157    0.000029    0.000048
         Rot=    1.000000   -0.000007    0.000017   -0.000011 Ang=  -0.00 deg.
 ExpMin= 4.38D-02 ExpMax= 5.48D+03 ExpMxC= 8.25D+02 IAcc=2 IRadAn=         4 AccDes= 0.00D+00
 Harris functional with IExCor=  402 and IRadAn=       4 diagonalized for initial guess.
 HarFok:  IExCor=  402 AccDes= 0.00D+00 IRadAn=         4 IDoV= 1 UseB2=F ITyADJ=14
 ICtDFT=  3500011 ScaDFX=  1.000000  1.000000  1.000000  1.000000
 FoFCou: FMM=F IPFlag=           0 FMFlag=      100000 FMFlg1=           0
[...]
     20          7           0        0.148764   -1.178232    0.046196
     21          1           0       -1.383951   -2.120161   -1.036500
     22          1           0       -0.743680   -0.683306   -1.819258
     23          1           0       -0.848665   -1.583189    1.877473
 ---------------------------------------------------------------------
                    Distance matrix (angstroms):
                    1          2          3          4          5
     1  C    0.000000
     2  C    1.534982   0.000000
     3  C    3.335659   2.391858   0.000000
     4  C    3.368171   3.104795   1.542267   0.000000
     5  C    2.654989   3.058099   2.579611   1.553279   0.000000
     6  C    1.550380   2.628230   3.331074   2.651389   1.549185
     7  H    1.093841   2.087609   3.946783   4.073934   3.137790
     8  H    1.097711   2.166107   4.154545   4.167431   3.542063
     9  H    4.395749   4.122259   2.189501   1.096774   2.167649
    10  H    3.538757   4.126687   3.486831   2.154950   1.097503
    11  H    2.892649   3.170103   2.746236   2.176483   1.099239
    12  H    2.184450   3.162474   3.730813   2.877951   2.165055
    13  H    2.143214   3.476099   4.303077   3.544576   2.149054
    14  H    3.439268   2.463728   1.092480   2.233756   2.800182
    15  O    2.389086   1.218144   3.032172   4.050402   3.995780
    16  C    3.665996   3.458635   2.371340   1.543672   2.571814
    17  H    4.702355   4.292385   2.787707   2.178406   3.486296
    18  H    3.878606   4.073803   3.349618   2.216732   2.713606
    19  C    3.002226   2.505896   2.367919   2.431261   3.186741
    20  N    2.558653   1.421682   1.484423   2.364569   3.020793
    21  H    3.961338   3.258616   2.975655   3.264841   4.232434
    22  H    2.615360   2.583323   3.232477   3.114791   3.405854
    23  H    4.364009   3.280784   1.097418   2.188918   3.523755
                    6          7          8          9         10
     6  C    0.000000
     7  H    2.188275   0.000000
     8  H    2.181823   1.745027   0.000000
     9  H    3.539835   5.007195   5.232696   0.000000
    10  H    2.138778   3.976160   4.307167   2.353000   0.000000
    11  H    2.179921   3.013442   3.929976   2.575381   1.754176
    12  H    1.094927   3.036573   2.365643   3.755975   2.468685
    13  H    1.096504   2.331725   2.625050   4.281769   2.363237
    14  H    3.606694   3.752148   4.393308   2.699648   3.750295
    15  O    3.659789   2.432257   2.933082   4.962318   5.083149
    16  C    2.995090   4.631589   4.103461   2.198232   2.969979
    17  H    4.081466   5.660220   5.121623   2.406678   3.772201
    18  H    2.901509   4.851826   4.172715   2.741480   2.777862
    19  C    3.021773   4.039698   3.209932   3.377860   3.922294
    20  N    3.033468   3.358541   3.090469   3.333348   4.016938
    21  H    4.107050   4.981875   4.028055   4.059686   4.928376
    22  H    2.727955   3.702292   2.483414   4.127649   4.080065
    23  H    4.353737   5.005926   5.097346   2.463783   4.297091
                   11         12         13         14         15
    11  H    0.000000
    12  H    3.073132   0.000000
    13  H    2.504018   1.738900   0.000000
    14  H    2.519253   4.266492   4.422270   0.000000
    15  O    3.820226   4.315584   4.346090   2.727248   0.000000
    16  C    3.493353   2.648722   3.983721   3.377061   4.569110
    17  H    4.322794   3.712203   5.054332   3.841129   5.308677
    18  H    3.781823   2.246178   3.721079   4.268197   5.260752
    19  C    3.951716   2.727853   4.101160   3.316040   3.580508
    20  N    3.388509   3.262731   4.083775   2.126846   2.287712
    21  H    4.971259   3.731344   5.177593   3.958879   4.155946
    22  H    4.225458   2.225815   3.702140   4.041804   3.706150
    23  H    3.713940   4.618771   5.348898   1.772377   3.780327
                   16         17         18         19         20
    16  C    0.000000
    17  H    1.095118   0.000000
    18  H    1.094509   1.762715   0.000000
    19  C    1.557889   2.192702   2.223680   0.000000
    20  N    2.438592   3.059177   3.299685   1.480154   0.000000
    21  H    2.204958   2.346549   2.877799   1.095418   2.099684
    22  H    2.228465   3.018442   2.425595   1.093454   2.126341
    23  H    2.696867   2.669971   3.771274   2.774940   2.124248
                   21         22         23
    21  H    0.000000
    22  H    1.757046   0.000000
    23  H    3.010998   3.806131   0.000000
 Symmetry turned off by external request.
 Stoichiometry    C8H13NO
 Framework group  C1[X(C8H13NO)]
 Deg. of freedom    63
 Full point group                 C1      NOp   1
 Rotational constants (GHZ):           1.9539248           1.4165987           1.1510322

 **********************************************************************

            Population analysis using the SCF density.

 **********************************************************************

 Alpha  occ. eigenvalues --  -19.13782 -14.34527 -10.29611 -10.22440 -10.22390
 Alpha  occ. eigenvalues --  -10.20476 -10.20323 -10.20241 -10.19990 -10.19811
 Alpha  occ. eigenvalues --   -1.04741  -0.94213  -0.81286  -0.78928  -0.74489
 Alpha  occ. eigenvalues --   -0.69665  -0.65368  -0.61834  -0.56283  -0.54406
 Alpha  occ. eigenvalues --   -0.51041  -0.48827  -0.48016  -0.45082  -0.43930
 Alpha  occ. eigenvalues --   -0.43322  -0.41631  -0.40973  -0.40060  -0.37746
 Alpha  occ. eigenvalues --   -0.36945  -0.35992  -0.34728  -0.34039  -0.33579
 Alpha  occ. eigenvalues --   -0.32348  -0.25811  -0.23572
 Alpha virt. eigenvalues --   -0.01953  -0.00660   0.00738   0.01266   0.02029
 Alpha virt. eigenvalues --    0.03547   0.03697   0.04226   0.04660   0.05235
 Alpha virt. eigenvalues --    0.06918   0.07933   0.08323   0.08548   0.09047
 Alpha virt. eigenvalues --    0.09506   0.09727   0.11273   0.11705   0.12541
 Alpha virt. eigenvalues --    0.12650   0.12996   0.13511   0.13970   0.14828
 Alpha virt. eigenvalues --    0.15560   0.16197   0.17089   0.17425   0.18269
 Alpha virt. eigenvalues --    0.18351   0.19108   0.19475   0.19651   0.19731
 Alpha virt. eigenvalues --    0.20747   0.21503   0.22421   0.23028   0.23519
 Alpha virt. eigenvalues --    0.25007   0.25509   0.26580   0.27683   0.27831
 Alpha virt. eigenvalues --    0.29240   0.29862   0.30184   0.30853   0.31807
 Alpha virt. eigenvalues --    0.32411   0.33491   0.34259   0.35073   0.35498
 Alpha virt. eigenvalues --    0.37144   0.37545   0.38403   0.39035   0.39816
 Alpha virt. eigenvalues --    0.40692   0.44009   0.44176   0.46367   0.50180
 Alpha virt. eigenvalues --    0.58771   0.61806   0.62628   0.64869   0.66044
 Alpha virt. eigenvalues --    0.67450   0.68021   0.69033   0.69800   0.72915
 Alpha virt. eigenvalues --    0.74938   0.76017   0.76479   0.78761   0.79468
 Alpha virt. eigenvalues --    0.80857   0.82314   0.83983   0.85878   0.88697
 Alpha virt. eigenvalues --    0.89926   0.91940   0.93141   0.94621   0.97479
 Alpha virt. eigenvalues --    0.98134   0.99668   0.99880   1.01554   1.03583
 Alpha virt. eigenvalues --    1.05383   1.05720   1.08186   1.09501   1.11409
 Alpha virt. eigenvalues --    1.12010   1.14492   1.14998   1.16779   1.18322
 Alpha virt. eigenvalues --    1.23922   1.26464   1.29258   1.31445   1.34085
 Alpha virt. eigenvalues --    1.37013   1.39095   1.41417   1.43884   1.47145
 Alpha virt. eigenvalues --    1.48955   1.51617   1.55653   1.56687   1.58914
 Alpha virt. eigenvalues --    1.61415   1.64495   1.68029   1.68057   1.72437
 Alpha virt. eigenvalues --    1.74304   1.75790   1.79207   1.80641   1.81579
 Alpha virt. eigenvalues --    1.82864   1.83571   1.85640   1.88112   1.90432
 Alpha virt. eigenvalues --    1.92069   1.94076   1.95970   1.98933   2.00328
 Alpha virt. eigenvalues --    2.01661   2.04573   2.05135   2.07617   2.10469
 Alpha virt. eigenvalues --    2.11861   2.12976   2.15551   2.17204   2.21510
 Alpha virt. eigenvalues --    2.22821   2.23989   2.26194   2.29467   2.31097
 Alpha virt. eigenvalues --    2.32055   2.34358   2.35846   2.37271   2.38694
 Alpha virt. eigenvalues --    2.41456   2.42516   2.43688   2.45299   2.46877
 Alpha virt. eigenvalues --    2.50716   2.52988   2.55348   2.56640   2.57672
 Alpha virt. eigenvalues --    2.59712   2.60726   2.62543   2.64775   2.67081
 Alpha virt. eigenvalues --    2.68793   2.69947   2.72758   2.74632   2.77629
 Alpha virt. eigenvalues --    2.79805   2.81556   2.82161   2.82607   2.85205
 Alpha virt. eigenvalues --    2.86238   2.89450   2.91184   2.93684   2.95677
 Alpha virt. eigenvalues --    3.00644   3.04131   3.09790   3.21469   3.28200
 Alpha virt. eigenvalues --    3.31515   3.32231   3.36153   3.37100   3.38323
 Alpha virt. eigenvalues --    3.43580   3.45482   3.48723   3.51459   3.52483
 Alpha virt. eigenvalues --    3.57367   3.58197   4.27813   4.38653   4.41174
 Alpha virt. eigenvalues --    4.44777   4.53662   4.63787   4.72211   4.76724
 Alpha virt. eigenvalues --    4.85480   4.87940
          Condensed to atoms (all electrons):
               1          2          3          4          5          6
     1  C    6.195565  -0.321457   0.223358  -0.192797  -0.090150  -0.003201
     2  C   -0.321457   6.059203  -0.522382   0.435476  -0.122232   0.057659
     3  C    0.223358  -0.522382   5.806967  -0.214010   0.064026  -0.093681
     4  C   -0.192797   0.435476  -0.214010   6.718004  -0.169831  -0.102363
     5  C   -0.090150  -0.122232   0.064026  -0.169831   5.605430   0.185246
     6  C   -0.003201   0.057659  -0.093681  -0.102363   0.185246   5.524730
     7  H    0.418176  -0.035178   0.010607  -0.015027   0.005274  -0.057108
     8  H    0.368644  -0.017279  -0.002239  -0.002057   0.015675  -0.053943
     9  H   -0.002167  -0.005896  -0.002115   0.235126   0.010095   0.021587
    10  H    0.044535  -0.021794   0.029834  -0.055967   0.411231  -0.075798
    11  H   -0.009352   0.015203  -0.012099  -0.053597   0.420602  -0.050793
    12  H   -0.062449   0.018426  -0.003222   0.002169  -0.066564   0.427808
    13  H   -0.033735   0.022330  -0.002564   0.019563  -0.044775   0.371588
    14  H   -0.004263   0.027849   0.392702   0.005395  -0.038666   0.003505
    15  O   -0.199557   0.526151  -0.056295   0.012704  -0.020492   0.029977
    16  C   -0.054041   0.000096   0.066280  -0.037433   0.005862   0.016290
    17  H    0.004956  -0.004066   0.020043  -0.075357   0.007455  -0.004534
    18  H   -0.003166  -0.000324   0.015181  -0.067603   0.009140  -0.010215
    19  C    0.041534  -0.000361  -0.214556   0.054466  -0.058125  -0.042843
    20  N   -0.160865  -0.095081   0.381090  -0.562169   0.165227   0.066447
    21  H   -0.002735  -0.009148  -0.002783  -0.007060   0.006953   0.000889
    22  H    0.003021   0.008535  -0.001200   0.033971  -0.009664  -0.005523
    23  H    0.003713  -0.016543   0.435482  -0.121356   0.030134   0.000863
               7          8          9         10         11         12
     1  C    0.418176   0.368644  -0.002167   0.044535  -0.009352  -0.062449
     2  C   -0.035178  -0.017279  -0.005896  -0.021794   0.015203   0.018426
     3  C    0.010607  -0.002239  -0.002115   0.029834  -0.012099  -0.003222
     4  C   -0.015027  -0.002057   0.235126  -0.055967  -0.053597   0.002169
     5  C    0.005274   0.015675   0.010095   0.411231   0.420602  -0.066564
     6  C   -0.057108  -0.053943   0.021587  -0.075798  -0.050793   0.427808
     7  H    0.521182  -0.023481   0.000001  -0.000044   0.001438   0.004559
     8  H   -0.023481   0.542350   0.000004  -0.000136  -0.000011  -0.007821
     9  H    0.000001   0.000004   0.597917  -0.007433  -0.000936  -0.000027
    10  H   -0.000044  -0.000136  -0.007433   0.583085  -0.029784  -0.002808
    11  H    0.001438  -0.000011  -0.000936  -0.029784   0.576923   0.005175
    12  H    0.004559  -0.007821  -0.000027  -0.002808   0.005175   0.592000
    13  H   -0.007598   0.000383  -0.000105  -0.004925  -0.002994  -0.030764
    14  H   -0.000048  -0.000021  -0.000164   0.000135   0.003018   0.000012
    15  O   -0.008306   0.000521  -0.000018   0.000094  -0.000743  -0.000614
    16  C    0.007086  -0.000109   0.001980  -0.010817   0.010583   0.005013
    17  H    0.000001  -0.000002  -0.005204  -0.000038  -0.000123   0.000037
    18  H   -0.000005   0.000025   0.000712   0.001681   0.000137   0.001520
    19  C   -0.009116   0.008241   0.004610   0.003086  -0.004569  -0.012118
    20  N    0.008131   0.004330   0.024339  -0.003342  -0.011534  -0.005785
    21  H    0.000000   0.000091  -0.000010  -0.000002   0.000012   0.000177
    22  H    0.000144  -0.001666  -0.000190   0.000052  -0.000005   0.001332
    23  H    0.000008   0.000006  -0.001040  -0.000177   0.000218  -0.000002
              13         14         15         16         17         18
     1  C   -0.033735  -0.004263  -0.199557  -0.054041   0.004956  -0.003166
     2  C    0.022330   0.027849   0.526151   0.000096  -0.004066  -0.000324
     3  C   -0.002564   0.392702  -0.056295   0.066280   0.020043   0.015181
     4  C    0.019563   0.005395   0.012704  -0.037433  -0.075357  -0.067603
     5  C   -0.044775  -0.038666  -0.020492   0.005862   0.007455   0.009140
     6  C    0.371588   0.003505   0.029977   0.016290  -0.004534  -0.010215
     7  H   -0.007598  -0.000048  -0.008306   0.007086   0.000001  -0.000005
     8  H    0.000383  -0.000021   0.000521  -0.000109  -0.000002   0.000025
     9  H   -0.000105  -0.000164  -0.000018   0.001980  -0.005204   0.000712
    10  H   -0.004925   0.000135   0.000094  -0.010817  -0.000038   0.001681
    11  H   -0.002994   0.003018  -0.000743   0.010583  -0.000123   0.000137
    12  H   -0.030764   0.000012  -0.000614   0.005013   0.000037   0.001520
    13  H    0.570904  -0.000008  -0.000559  -0.001341  -0.000001  -0.000022
    14  H   -0.000008   0.536251  -0.001265   0.006909  -0.000058  -0.000148
    15  O   -0.000559  -0.001265   8.154850  -0.008975   0.000057   0.000076
    16  C   -0.001341   0.006909  -0.008975   5.564965   0.445799   0.421964
    17  H   -0.000001  -0.000058   0.000057   0.445799   0.559732  -0.029887
    18  H   -0.000022  -0.000148   0.000076   0.421964  -0.029887   0.561124
    19  C    0.002781   0.005799   0.013994   0.102749  -0.074074  -0.049419
    20  N   -0.002227  -0.068211  -0.054155   0.014572   0.010343   0.008016
    21  H   -0.000004  -0.000128   0.000199  -0.047468  -0.008440   0.003677
    22  H    0.000159  -0.000159   0.000134  -0.063254   0.003804  -0.007360
    23  H    0.000003  -0.027020   0.001610   0.002936   0.001293   0.000120
              19         20         21         22         23
     1  C    0.041534  -0.160865  -0.002735   0.003021   0.003713
     2  C   -0.000361  -0.095081  -0.009148   0.008535  -0.016543
     3  C   -0.214556   0.381090  -0.002783  -0.001200   0.435482
     4  C    0.054466  -0.562169  -0.007060   0.033971  -0.121356
     5  C   -0.058125   0.165227   0.006953  -0.009664   0.030134
     6  C   -0.042843   0.066447   0.000889  -0.005523   0.000863
     7  H   -0.009116   0.008131   0.000000   0.000144   0.000008
     8  H    0.008241   0.004330   0.000091  -0.001666   0.000006
     9  H    0.004610   0.024339  -0.000010  -0.000190  -0.001040
    10  H    0.003086  -0.003342  -0.000002   0.000052  -0.000177
    11  H   -0.004569  -0.011534   0.000012  -0.000005   0.000218
    12  H   -0.012118  -0.005785   0.000177   0.001332  -0.000002
    13  H    0.002781  -0.002227  -0.000004   0.000159   0.000003
    14  H    0.005799  -0.068211  -0.000128  -0.000159  -0.027020
    15  O    0.013994  -0.054155   0.000199   0.000134   0.001610
    16  C    0.102749   0.014572  -0.047468  -0.063254   0.002936
    17  H   -0.074074   0.010343  -0.008440   0.003804   0.001293
    18  H   -0.049419   0.008016   0.003677  -0.007360   0.000120
    19  C    5.540405  -0.013292   0.414738   0.423231  -0.017208
    20  N   -0.013292   7.516885  -0.038442  -0.058869  -0.016832
    21  H    0.414738  -0.038442   0.573127  -0.035890   0.002372
    22  H    0.423231  -0.058869  -0.035890   0.575238  -0.000191
    23  H   -0.017208  -0.016832   0.002372  -0.000191   0.577191
 Mulliken charges:
               1
     1  C   -0.163568
     2  C    0.000813
     3  C   -0.318424
     4  C    0.159754
     5  C   -0.321853
     6  C   -0.206587
     7  H    0.179303
     8  H    0.168496
     9  H    0.128935
    10  H    0.139334
    11  H    0.143233
    12  H    0.133946
    13  H    0.143913
    14  H    0.158585
    15  O   -0.389386
    16  C   -0.449644
    17  H    0.148266
    18  H    0.144777
    19  C   -0.119957
    20  N   -0.108577
    21  H    0.149876
    22  H    0.134349
    23  H    0.144417
 Sum of Mulliken charges =  -0.00000
 Mulliken charges with hydrogens summed into heavy atoms:
               1
     1  C    0.184231
     2  C    0.000813
     3  C   -0.015422
     4  C    0.288689
     5  C   -0.039286
     6  C    0.071272
    15  O   -0.389386
    16  C   -0.156602
    19  C    0.164268
    20  N   -0.108577
 APT charges:
               1
     1  C   -0.849795
     2  C   -0.401400
     3  C   -0.947245
     4  C   -0.312065
     5  C   -0.972550
     6  C   -0.766817
     7  H    0.516956
     8  H    0.478581
     9  H    0.531712
    10  H    0.534214
    11  H    0.357854
    12  H    0.335265
    13  H    0.563964
    14  H    0.375588
    15  O   -0.076321
    16  C   -1.114976
    17  H    0.541167
    18  H    0.419866
    19  C   -0.788606
    20  N    0.187478
    21  H    0.550814
    22  H    0.326889
    23  H    0.509427
 Sum of APT charges =  -0.00000
 APT charges with hydrogens summed into heavy atoms:
               1
     1  C    0.145742
     2  C   -0.401400
     3  C   -0.062230
     4  C    0.219647
     5  C   -0.080482
     6  C    0.132412
    15  O   -0.076321
    16  C   -0.153943
    19  C    0.089098
    20  N    0.187478
 Electronic spatial extent (au):  <R**2>=           1243.4294
 Charge=              0.0000 electrons
 Dipole moment (field-independent basis, Debye):
    X=             -3.7161    Y=              2.3685    Z=             -0.6850  Tot=              4.4597
 Quadrupole moment (field-independent basis, Debye-Ang):
   XX=            -69.8482   YY=            -63.7916   ZZ=            -58.1296
   XY=              5.9824   XZ=             -1.7828   YZ=              0.2023
 Traceless Quadrupole moment (field-independent basis, Debye-Ang):
   XX=             -5.9250   YY=              0.1315   ZZ=              5.7935
   XY=              5.9824   XZ=             -1.7828   YZ=              0.2023
 Octapole moment (field-independent basis, Debye-Ang**2):
  XXX=            -11.6041  YYY=             -3.6487  ZZZ=              1.2602  XYY=             -1.3103
  XXY=              7.0913  XXZ=             -2.0299  XZZ=              6.6308  YZZ=             -5.4325
  YYZ=             -0.6055  XYZ=              1.2121
 Hexadecapole moment (field-independent basis, Debye-Ang**3):
 XXXX=           -830.0879 YYYY=           -561.5645 ZZZZ=           -367.8486 XXXY=             46.3377
 XXXZ=             42.6822 YYYX=             29.1662 YYYZ=             22.4110 ZZZX=             48.3678
 ZZZY=             21.0062 XXYY=           -221.5732 XXZZ=           -184.5316 YYZZ=           -155.7099
 XXYZ=              8.6022 YYXZ=             13.8712 ZZXY=              5.5370
 N-N= 5.781092970242D+02 E-N=-2.183639335829D+03  KE= 4.384231972562D+02
  Exact polarizability:   0.000   0.000   0.000   0.000   0.000   0.000
 Approx polarizability: 151.591  -0.920 129.014   2.599  -4.121 131.431

 This type of calculation cannot be archived.


 ONLY A FOOL KNOWS EVERYTHING.

               -- THE CHEMIST ANALYST, SEPTEMBER 1946
 Job cpu time:       7 days  5 hours 38 minutes 58.8 seconds.
 Elapsed time:       0 days 10 hours 51 minutes 54.5 seconds.
 File lengths (MBytes):  RWF=    161 Int=      0 D2E=      0 Chk=     13 Scr=      1
 Normal termination of Gaussian 16 at Sun Apr 14 21:57:23 2019.
