 Entering Gaussian System, Link 0=g16
 Input=CalcFC_LQA_Reverse_2.com
 Output=CalcFC_LQA_Reverse_2.log
 Initial command:
 /opt/g16/l1.exe "/scratch/Grace/g03/Gau-104066.inp" -scrdir="/scratch/Grace/g03/"
 Entering Link 1 = /opt/g16/l1.exe PID=    104067.
  
 Copyright (c) 1988,1990,1992,1993,1995,1998,2003,2009,2016,
            Gaussian, Inc.  All Rights Reserved.
  
 This is part of the Gaussian(R) 16 program.  It is based on
 the Gaussian(R) 09 system (copyright 2009, Gaussian, Inc.),
 the Gaussian(R) 03 system (copyright 2003, Gaussian, Inc.),
 the Gaussian(R) 98 system (copyright 1998, Gaussian, Inc.),
 the Gaussian(R) 94 system (copyright 1995, Gaussian, Inc.),
 the Gaussian 92(TM) system (copyright 1992, Gaussian, Inc.),
 the Gaussian 90(TM) system (copyright 1990, Gaussian, Inc.),
 the Gaussian 88(TM) system (copyright 1988, Gaussian, Inc.),
 the Gaussian 86(TM) system (copyright 1986, Carnegie Mellon
 University), and the Gaussian 82(TM) system (copyright 1983,
 Carnegie Mellon University). Gaussian is a federally registered
 trademark of Gaussian, Inc.
  
 This software contains proprietary and confidential information,
 including trade secrets, belonging to Gaussian, Inc.
  
 This software is provided under written license and may be
 used, copied, transmitted, or stored only in accord with that
 written license.
  
 The following legend is applicable only to US Government
 contracts under FAR:
  
                    RESTRICTED RIGHTS LEGEND
  
 Use, reproduction and disclosure by the US Government is
 subject to restrictions as set forth in subparagraphs (a)
 and (c) of the Commercial Computer Software - Restricted
 Rights clause in FAR 52.227-19.
  
 Gaussian, Inc.
 340 Quinnipiac St., Bldg. 40, Wallingford CT 06492
  
  
 ---------------------------------------------------------------
 Warning -- This program may not be used in any manner that
 competes with the business of Gaussian, Inc. or will provide
 assistance to any competitor of Gaussian, Inc.  The licensee
 of this program is prohibited from giving any competitor of
 Gaussian, Inc. access to this program.  By using this program,
 the user acknowledges that Gaussian, Inc. is engaged in the
 business of creating and licensing software in the field of
 computational chemistry and represents and warrants to the
 licensee that it is not a competitor of Gaussian, Inc. and that
 it will not use this program in any manner prohibited above.
 ---------------------------------------------------------------
  

 Cite this work as:
 Gaussian 16, Revision A.03,
 M. J. Frisch, G. W. Trucks, H. B. Schlegel, G. E. Scuseria, 
 M. A. Robb, J. R. Cheeseman, G. Scalmani, V. Barone, 
 G. A. Petersson, H. Nakatsuji, X. Li, M. Caricato, A. V. Marenich, 
 J. Bloino, B. G. Janesko, R. Gomperts, B. Mennucci, H. P. Hratchian, 
 J. V. Ortiz, A. F. Izmaylov, J. L. Sonnenberg, D. Williams-Young, 
 F. Ding, F. Lipparini, F. Egidi, J. Goings, B. Peng, A. Petrone, 
 T. Henderson, D. Ranasinghe, V. G. Zakrzewski, J. Gao, N. Rega, 
 G. Zheng, W. Liang, M. Hada, M. Ehara, K. Toyota, R. Fukuda, 
 J. Hasegawa, M. Ishida, T. Nakajima, Y. Honda, O. Kitao, H. Nakai, 
 T. Vreven, K. Throssell, J. A. Montgomery, Jr., J. E. Peralta, 
 F. Ogliaro, M. J. Bearpark, J. J. Heyd, E. N. Brothers, K. N. Kudin, 
 V. N. Staroverov, T. A. Keith, R. Kobayashi, J. Normand, 
 K. Raghavachari, A. P. Rendell, J. C. Burant, S. S. Iyengar, 
 J. Tomasi, M. Cossi, J. M. Millam, M. Klene, C. Adamo, R. Cammi, 
 J. W. Ochterski, R. L. Martin, K. Morokuma, O. Farkas, 
 J. B. Foresman, and D. J. Fox, Gaussian, Inc., Wallingford CT, 2016.
 
 ******************************************
 Gaussian 16:  ES64L-G16RevA.03 25-Dec-2016
                14-Apr-2019 
 ******************************************
 %NProcShared=16
 Will use up to   16 processors via shared memory.
 ----------------------------------------------------------------------
 #B3LYP/6-31+G(d,p) IRC(CalcFC,Reverse,StepSize=2,LQA,MaxPoints=500,Max
 Cycles=100) Nosymm
 ----------------------------------------------------------------------
 1/6=100,10=4,18=10,22=2,26=3,38=1,39=2,42=500,44=3,45=2,172=1/1,23;
 2/12=2,15=1,17=6,18=5,29=1,40=1/2;
 3/5=1,6=6,7=111,11=2,25=1,30=1,71=2,74=-5,140=1/1,2,3;
 4//1;
 5/5=2,38=5/2;
 8/6=4,10=90,11=11/1;
 11/6=1,8=1,9=11,15=111,16=1,31=1/1,2,10;
 10/6=1,13=1,31=1/2;
 6/7=2,8=2,9=2,10=2,28=1/1;
 7/10=1,18=20,25=1,30=1/1,2,3,16;
 1/6=100,10=4,18=10,22=2,26=3,39=2,42=500,44=3,45=2/23(2);
 2/15=1,29=1/2;
 99/5=20/99;
 2/15=1,29=1/2;
 3/5=1,6=6,7=111,11=2,25=1,30=1,71=2,74=-5,140=1/1,2,3;
 4/5=5,16=3,69=1/1;
 5/5=2,38=5/2;
 8/6=4,10=90,11=11/1;
 11/6=1,8=1,9=11,15=111,16=1,31=1/1,2,10;
 10/6=1,13=1,31=1/2;
 7/10=1,18=20,25=1,30=1/1,2,3,16;
 1/6=100,18=10,22=2,26=3,39=2,42=500,44=3,45=2/23(-8);
 2/15=1,29=1/2;
 6/7=2,8=2,9=2,10=2,19=2,28=1/1;
 99/5=20,9=1/99;
 ---
 IRC
 ---
 Symbolic Z-matrix:
 Charge =  0 Multiplicity = 1
 6                     1.42386   0.91175  -0.68912 
 6                     1.20521  -0.62156  -0.01092 
 6                     0.3985   -0.21809   1.39019 
 6                    -0.90996   0.48657   1.07238 
 6                    -0.64582   1.87706   0.4628 
 6                     0.20965   1.81321  -0.81568 
 1                     2.16302   1.30613   0.00842 
 1                     1.90881   0.70637  -1.64378 
 1                    -1.41736   0.64166   2.03775 
 1                    -1.59401   2.38511   0.25243 
 1                    -0.12394   2.48314   1.21502 
 1                    -0.40131   1.54243  -1.68124 
 1                     0.59208   2.81909  -1.04148 
 1                     1.11339   0.39515   1.93827 
 8                     2.36213  -1.06055   0.32941 
 6                    -1.78452  -0.43668   0.22138 
 1                    -2.10703  -1.28668   0.83429 
 1                    -2.69255   0.0736   -0.11979 
 6                    -1.0161   -0.99617  -1.01085 
 7                     0.35101  -1.36777  -0.79035 
 1                    -1.53799  -1.87581  -1.40573 
 1                    -1.05511  -0.25085  -1.82316 
 1                     0.269    -1.16961   1.90672 
 
 IRC-IRC-IRC-IRC-IRC-IRC-IRC-IRC-IRC-IRC-IRC-IRC-IRC-IRC-IRC-IRC-IRC-IRC
 ------------------------------------------------------------------------
 INPUT DATA FOR L123
 ------------------------------------------------------------------------
 GENERAL PARAMETERS:
 Rxn path following direction = Reverse
 Maximum points per path      = 500
 Step size                    =   0.020 bohr
 Integration scheme           = LQA                                 
 Initial Hessian              = CalcFC
 Hessian evaluation           = All updating
 Hessian updating method      = Bofill                              
 ------------------------------------------------------------------------
 IRC-IRC-IRC-IRC-IRC-IRC-IRC-IRC-IRC-IRC-IRC-IRC-IRC-IRC-IRC-IRC-IRC-IRC
                          Input orientation:                          
 ---------------------------------------------------------------------
 Center     Atomic      Atomic             Coordinates (Angstroms)
 Number     Number       Type             X           Y           Z
 ---------------------------------------------------------------------
      1          6           0        1.423860    0.911745   -0.689116
      2          6           0        1.205207   -0.621558   -0.010924
      3          6           0        0.398497   -0.218094    1.390188
      4          6           0       -0.909958    0.486565    1.072382
      5          6           0       -0.645824    1.877061    0.462799
      6          6           0        0.209653    1.813209   -0.815676
      7          1           0        2.163018    1.306126    0.008424
      8          1           0        1.908809    0.706365   -1.643782
      9          1           0       -1.417355    0.641657    2.037753
     10          1           0       -1.594014    2.385113    0.252426
     11          1           0       -0.123942    2.483142    1.215019
     12          1           0       -0.401314    1.542428   -1.681237
     13          1           0        0.592081    2.819094   -1.041482
     14          1           0        1.113386    0.395151    1.938266
     15          8           0        2.362127   -1.060553    0.329413
     16          6           0       -1.784524   -0.436677    0.221376
     17          1           0       -2.107032   -1.286678    0.834293
     18          1           0       -2.692547    0.073595   -0.119791
     19          6           0       -1.016101   -0.996171   -1.010849
     20          7           0        0.351011   -1.367765   -0.790350
     21          1           0       -1.537988   -1.875807   -1.405729
     22          1           0       -1.055112   -0.250849   -1.823162
     23          1           0        0.269002   -1.169613    1.906722
 ---------------------------------------------------------------------
                    Distance matrix (angstroms):
                    1          2          3          4          5
     1  C    0.000000
     2  C    1.690790   0.000000
     3  C    2.579033   1.666337   0.000000
     4  C    2.954718   2.622101   1.519737   0.000000
     5  C    2.557799   3.145445   2.518001   1.541051   0.000000
     6  C    1.517548   2.750790   3.004611   2.564815   1.539616
     7  H    1.090162   2.152613   2.710360   3.353635   2.902071
     8  H    1.090295   2.219158   3.512925   3.920626   3.512031
     9  H    3.947311   3.559582   2.110884   1.101565   2.145219
    10  H    3.487819   4.116438   3.470056   2.178244   1.096101
    11  H    2.913882   3.592873   2.756865   2.150462   1.097966
    12  H    2.171019   3.170756   3.629433   2.992655   2.183725
    13  H    2.110450   3.643633   3.895511   3.487870   2.163954
    14  H    2.695626   2.200334   1.089736   2.202733   2.732742
    15  O    2.409918   1.283359   2.385545   3.694877   4.206559
    16  C    3.597355   3.004436   2.485856   1.530181   2.590040
    17  H    4.429564   3.482485   2.780030   2.152687   3.504623
    18  H    4.239273   3.960754   3.452488   2.183906   2.789440
    19  C    3.114011   2.464629   2.893349   2.559223   3.250262
    20  N    2.521392   1.376220   2.465511   2.915193   3.618419
    21  H    4.129954   3.323212   3.783535   3.480841   4.286184
    22  H    2.963611   2.920732   3.526992   2.991492   3.149783
    23  H    3.521949   2.203227   1.090397   2.197498   3.493429
                    6          7          8          9         10
     6  C    0.000000
     7  H    2.179887   0.000000
     8  H    2.190432   1.775984   0.000000
     9  H    3.487370   4.168785   4.961981   0.000000
    10  H    2.172816   3.916509   4.322449   2.501647   0.000000
    11  H    2.164213   2.841025   3.932144   2.396012   1.759917
    12  H    1.093526   3.080031   2.457045   3.959118   2.423160
    13  H    1.099565   2.420582   2.561281   4.273260   2.577120
    14  H    3.226735   2.378212   3.682475   2.544664   3.759258
    15  O    3.768671   2.396633   2.687191   4.483350   5.246865
    16  C    3.180284   4.320393   4.292560   2.144025   2.828384
    17  H    4.206985   5.063400   5.122505   2.375383   3.752840
    18  H    3.454458   5.011196   4.888295   2.569787   2.586201
    19  C    3.071348   4.055402   3.443012   3.483886   3.655534
    20  N    3.184214   3.327327   2.730768   3.893978   4.353688
    21  H    4.124470   5.081532   4.313316   4.267288   4.572533
    22  H    2.622021   4.016869   3.119818   3.979253   3.398055
    23  H    4.038836   3.649673   4.337550   2.478239   4.340922
                   11         12         13         14         15
    11  H    0.000000
    12  H    3.057806   0.000000
    13  H    2.391098   1.739539   0.000000
    14  H    2.532543   4.087953   3.876359   0.000000
    15  O    4.418440   4.295908   4.479294   2.503365   0.000000
    16  C    3.502885   3.074095   4.224110   3.469515   4.194712
    17  H    4.276581   4.152253   5.259383   3.797156   4.503268
    18  H    3.766347   3.137727   4.379048   4.338678   5.199789
    19  C    4.225643   2.696640   4.140463   3.894582   3.634951
    20  N    4.367673   3.135107   4.201306   3.336830   2.322248
    21  H    5.279042   3.612792   5.168362   4.834184   4.345832
    22  H    4.191936   1.914011   3.570549   4.389538   4.119068
    23  H    3.738379   4.547300   4.970520   1.778332   2.623160
                   16         17         18         19         20
    16  C    0.000000
    17  H    1.096440   0.000000
    18  H    1.096028   1.761660   0.000000
    19  C    1.556241   2.163117   2.179187   0.000000
    20  N    2.539887   2.947544   3.433717   1.433770   0.000000
    21  H    2.186172   2.385075   2.605151   1.096383   2.050638
    22  H    2.178694   3.039991   2.384938   1.103122   2.071566
    23  H    2.755822   2.609472   3.797775   3.192772   2.705584
                   21         22         23
    21  H    0.000000
    22  H    1.745826   0.000000
    23  H    3.838783   4.063181   0.000000
 Symmetry turned off by external request.
 Stoichiometry    C8H13NO
 Framework group  C1[X(C8H13NO)]
 Deg. of freedom    63
 Full point group                 C1      NOp   1
 Rotational constants (GHZ):           1.8400525           1.4618514           1.2115579
 Standard basis: 6-31+G(d,p) (6D, 7F)
   255 basis functions,   411 primitive gaussians,   255 cartesian basis functions
    38 alpha electrons       38 beta electrons
       nuclear repulsion energy       577.1426959493 Hartrees.
 NAtoms=   23 NActive=   23 NUniq=   23 SFac= 1.00D+00 NAtFMM=   60 NAOKFM=F Big=F
 Integral buffers will be    131072 words long.
 Raffenetti 2 integral format.
 Two-electron integral symmetry is turned off.
 One-electron integrals computed using PRISM.
 NBasis=   255 RedAO= T EigKep=  1.17D-05  NBF=   255
 NBsUse=   255 1.00D-06 EigRej= -1.00D+00 NBFU=   255
 ExpMin= 4.38D-02 ExpMax= 5.48D+03 ExpMxC= 8.25D+02 IAcc=3 IRadAn=         5 AccDes= 0.00D+00
 Harris functional with IExCor=  402 and IRadAn=       5 diagonalized for initial guess.
 HarFok:  IExCor=  402 AccDes= 0.00D+00 IRadAn=         5 IDoV= 1 UseB2=F ITyADJ=14
 ICtDFT=  3500011 ScaDFX=  1.000000  1.000000  1.000000  1.000000
 FoFCou: FMM=F IPFlag=           0 FMFlag=      100000 FMFlg1=           0
         NFxFlg=           0 DoJE=T BraDBF=F KetDBF=T FulRan=T
         wScrn=  0.000000 ICntrl=       500 IOpCl=  0 I1Cent=   200000004 NGrid=           0
         NMat0=    1 NMatS0=      1 NMatT0=    0 NMatD0=    1 NMtDS0=    0 NMtDT0=    0
 Symmetry not used in FoFCou.
 Requested convergence on RMS density matrix=1.00D-08 within 128 cycles.
 Requested convergence on MAX density matrix=1.00D-06.
 Requested convergence on             energy=1.00D-06.
 No special actions if energy rises.
 EnCoef did     1 forward-backward iterations
 EnCoef did     3 forward-backward iterations
 EnCoef did     1 forward-backward iterations
 SCF Done:  E(RB3LYP) =  -442.547255270     A.U. after   20 cycles
            NFock= 20  Conv=0.29D-08     -V/T= 2.0096
 DoSCS=F DFT=T ScalE2(SS,OS)=  1.000000  1.000000
 Range of M.O.s used for correlation:     1   255
 NBasis=   255 NAE=    38 NBE=    38 NFC=     0 NFV=     0
 NROrb=    255 NOA=    38 NOB=    38 NVA=   217 NVB=   217

 **** Warning!!: The largest alpha MO coefficient is  0.95163967D+02


 **** Warning!!: The smallest alpha delta epsilon is  0.84657591D-01

 Symmetrizing basis deriv contribution to polar:
 IMax=3 JMax=2 DiffMx= 0.00D+00
 G2DrvN: will do    24 centers at a time, making    1 passes.
 Calling FoFCou, ICntrl=  3107 FMM=F I1Cent=   0 AccDes= 0.00D+00.
 End of G2Drv F.D. properties file   721 does not exist.
 End of G2Drv F.D. properties file   722 does not exist.
 End of G2Drv F.D. properties file   788 does not exist.
          IDoAtm=11111111111111111111111
          Differentiating once with respect to nuclear coordinates.
 CalDSu exits because no D1Ps are significant.
          There are    72 degrees of freedom in the 1st order CPHF.  IDoFFX=6 NUNeed=     0.
     66 vectors produced by pass  0 Test12= 1.15D-14 1.39D-09 XBig12= 7.69D-01 4.23D-01.
 AX will form    48 AO Fock derivatives at one time.
     66 vectors produced by pass  1 Test12= 1.15D-14 1.39D-09 XBig12= 9.45D-02 6.70D-02.
     66 vectors produced by pass  2 Test12= 1.15D-14 1.39D-09 XBig12= 8.85D-04 5.06D-03.
     66 vectors produced by pass  3 Test12= 1.15D-14 1.39D-09 XBig12= 2.23D-06 1.59D-04.
     66 vectors produced by pass  4 Test12= 1.15D-14 1.39D-09 XBig12= 3.79D-09 6.83D-06.
     57 vectors produced by pass  5 Test12= 1.15D-14 1.39D-09 XBig12= 4.14D-12 1.91D-07.
     11 vectors produced by pass  6 Test12= 1.15D-14 1.39D-09 XBig12= 4.71D-15 7.56D-09.
      2 vectors produced by pass  7 Test12= 1.15D-14 1.39D-09 XBig12= 1.09D-16 1.95D-09.
 InvSVY:  IOpt=1 It=  1 EMax= 8.88D-16
 Solved reduced A of dimension   400 with    72 vectors.
 End of Minotr F.D. properties file   721 does not exist.
 End of Minotr F.D. properties file   722 does not exist.
 End of Minotr F.D. properties file   788 does not exist.

 **********************************************************************

            Population analysis using the SCF density.

 **********************************************************************

 Alpha  occ. eigenvalues --  -19.09545 -14.35269 -10.27946 -10.23422 -10.23234
 Alpha  occ. eigenvalues --  -10.23227 -10.22151 -10.21423 -10.21168 -10.21107
 Alpha  occ. eigenvalues --   -1.00022  -0.90618  -0.84332  -0.79448  -0.75118
 Alpha  occ. eigenvalues --   -0.71392  -0.65951  -0.62397  -0.58872  -0.53577
 Alpha  occ. eigenvalues --   -0.50649  -0.48412  -0.47095  -0.45867  -0.45163
 Alpha  occ. eigenvalues --   -0.43954  -0.42563  -0.42160  -0.39584  -0.38597
 Alpha  occ. eigenvalues --   -0.37270  -0.37163  -0.35272  -0.34223  -0.33924
 Alpha  occ. eigenvalues --   -0.25947  -0.22869  -0.22549
 Alpha virt. eigenvalues --   -0.14083  -0.01439   0.00341   0.00781   0.01905
 Alpha virt. eigenvalues --    0.03204   0.03356   0.04096   0.04872   0.05154
 Alpha virt. eigenvalues --    0.07019   0.07576   0.07888   0.08264   0.09014
 Alpha virt. eigenvalues --    0.09182   0.10194   0.10771   0.11423   0.12352
 Alpha virt. eigenvalues --    0.12757   0.12856   0.13835   0.14136   0.14506
 Alpha virt. eigenvalues --    0.15242   0.16257   0.16978   0.17494   0.17834
 Alpha virt. eigenvalues --    0.17915   0.18462   0.19154   0.19895   0.20604
 Alpha virt. eigenvalues --    0.21319   0.22014   0.22330   0.22926   0.23291
 Alpha virt. eigenvalues --    0.24255   0.24373   0.25502   0.26308   0.26881
 Alpha virt. eigenvalues --    0.27612   0.28214   0.29204   0.30947   0.31382
 Alpha virt. eigenvalues --    0.31880   0.32992   0.33623   0.34857   0.35793
 Alpha virt. eigenvalues --    0.36860   0.37481   0.37968   0.38836   0.39223
 Alpha virt. eigenvalues --    0.40765   0.41492   0.42158   0.46256   0.48269
 Alpha virt. eigenvalues --    0.59462   0.61346   0.62587   0.63660   0.64764
 Alpha virt. eigenvalues --    0.65455   0.66548   0.69529   0.69917   0.70972
 Alpha virt. eigenvalues --    0.72920   0.74422   0.75699   0.76164   0.77865
 Alpha virt. eigenvalues --    0.78189   0.82092   0.83332   0.85451   0.86630
 Alpha virt. eigenvalues --    0.92339   0.93862   0.94746   0.95101   0.97484
 Alpha virt. eigenvalues --    0.98169   0.99475   1.02798   1.04207   1.05980
 Alpha virt. eigenvalues --    1.06098   1.08626   1.09402   1.09473   1.11197
 Alpha virt. eigenvalues --    1.13113   1.14184   1.14400   1.17206   1.20021
 Alpha virt. eigenvalues --    1.21324   1.27178   1.29071   1.31429   1.34502
 Alpha virt. eigenvalues --    1.34972   1.37417   1.40391   1.42427   1.44911
 Alpha virt. eigenvalues --    1.47178   1.50777   1.51530   1.56196   1.59036
 Alpha virt. eigenvalues --    1.61414   1.63459   1.65815   1.69444   1.70787
 Alpha virt. eigenvalues --    1.71819   1.77046   1.77852   1.78452   1.79648
 Alpha virt. eigenvalues --    1.81532   1.84894   1.85985   1.89848   1.91857
 Alpha virt. eigenvalues --    1.93326   1.94017   1.96032   1.98843   1.99796
 Alpha virt. eigenvalues --    2.01307   2.02756   2.06485   2.09785   2.10324
 Alpha virt. eigenvalues --    2.12890   2.14587   2.14823   2.16444   2.19381
 Alpha virt. eigenvalues --    2.20096   2.22113   2.22603   2.25627   2.27910
 Alpha virt. eigenvalues --    2.28758   2.30802   2.34332   2.35803   2.37844
 Alpha virt. eigenvalues --    2.38723   2.41165   2.42909   2.43059   2.44890
 Alpha virt. eigenvalues --    2.47912   2.50907   2.51989   2.54334   2.55033
 Alpha virt. eigenvalues --    2.59413   2.61049   2.64211   2.66308   2.66751
 Alpha virt. eigenvalues --    2.67287   2.68989   2.71226   2.74071   2.75644
 Alpha virt. eigenvalues --    2.76680   2.78077   2.80661   2.81894   2.84068
 Alpha virt. eigenvalues --    2.86568   2.88973   2.91815   2.92441   2.93266
 Alpha virt. eigenvalues --    2.96115   3.02274   3.08151   3.23817   3.28557
 Alpha virt. eigenvalues --    3.29843   3.34032   3.34203   3.35298   3.38581
 Alpha virt. eigenvalues --    3.45303   3.50228   3.51247   3.51299   3.52087
 Alpha virt. eigenvalues --    3.53531   3.55163   4.20903   4.32942   4.42031
 Alpha virt. eigenvalues --    4.46902   4.56431   4.59983   4.73228   4.76741
 Alpha virt. eigenvalues --    4.85293   4.89074
          Condensed to atoms (all electrons):
               1          2          3          4          5          6
     1  C    7.063448  -2.491312   0.276520   0.773708  -0.192065  -0.229543
     2  C   -2.491312  13.136331  -2.162939  -0.781468   0.230901  -0.048763
     3  C    0.276520  -2.162939   7.246897  -0.755032  -0.195027   0.287565
     4  C    0.773708  -0.781468  -0.755032   7.307478   0.292442  -0.576872
     5  C   -0.192065   0.230901  -0.195027   0.292442   5.401918   0.269436
     6  C   -0.229543  -0.048763   0.287565  -0.576872   0.269436   5.767277
     7  H    0.472149  -0.112856  -0.005528   0.009461   0.009243  -0.076066
     8  H    0.370324  -0.075209   0.034146  -0.016230   0.012471  -0.008206
     9  H   -0.031052   0.074884  -0.012856   0.235978  -0.023592   0.026690
    10  H    0.027426  -0.025744   0.026032  -0.069909   0.408778  -0.043510
    11  H    0.010989  -0.042349  -0.002227  -0.044598   0.434115  -0.056011
    12  H   -0.033802  -0.014819  -0.010965  -0.003334  -0.017033   0.381484
    13  H   -0.005136  -0.003959   0.000382   0.021583  -0.036840   0.351616
    14  H   -0.013426  -0.067993   0.441062  -0.069671  -0.009232   0.002905
    15  O   -0.046822   0.049215  -0.043634   0.057070  -0.020236   0.024285
    16  C   -0.370641   0.568418   0.092388  -0.458872  -0.039589   0.128782
    17  H    0.004887  -0.003065  -0.025289  -0.026433   0.008797  -0.004580
    18  H    0.010970  -0.044798   0.046895  -0.091924  -0.018432   0.003621
    19  C    0.365391  -1.211508   0.425300  -0.093198  -0.042472  -0.068920
    20  N    0.162613  -0.393237   0.146829   0.023545  -0.028639  -0.006403
    21  H    0.032284  -0.112397   0.022682   0.038171  -0.001284  -0.004134
    22  H   -0.066281   0.100201  -0.000064  -0.067721   0.017797   0.012610
    23  H    0.017701  -0.027181   0.347185   0.019703   0.012657  -0.003312
               7          8          9         10         11         12
     1  C    0.472149   0.370324  -0.031052   0.027426   0.010989  -0.033802
     2  C   -0.112856  -0.075209   0.074884  -0.025744  -0.042349  -0.014819
     3  C   -0.005528   0.034146  -0.012856   0.026032  -0.002227  -0.010965
     4  C    0.009461  -0.016230   0.235978  -0.069909  -0.044598  -0.003334
     5  C    0.009243   0.012471  -0.023592   0.408778   0.434115  -0.017033
     6  C   -0.076066  -0.008206   0.026690  -0.043510  -0.056011   0.381484
     7  H    0.529629  -0.026005  -0.000137  -0.000035   0.002316   0.004816
     8  H   -0.026005   0.530841   0.000010  -0.000100  -0.000060  -0.005505
     9  H   -0.000137   0.000010   0.588962  -0.002858  -0.005990  -0.000179
    10  H   -0.000035  -0.000100  -0.002858   0.572426  -0.029765  -0.005872
    11  H    0.002316  -0.000060  -0.005990  -0.029765   0.571191   0.005061
    12  H    0.004816  -0.005505  -0.000179  -0.005872   0.005061   0.585875
    13  H   -0.005321   0.000119  -0.000057  -0.001013  -0.007275  -0.029428
    14  H    0.002279   0.000211  -0.001893   0.000061   0.002895   0.000071
    15  O   -0.009980   0.001506  -0.000883   0.000180   0.000010  -0.000540
    16  C    0.001447   0.010211   0.021803  -0.010893   0.014229   0.024582
    17  H   -0.000001  -0.000000  -0.005047   0.000087  -0.000159  -0.000028
    18  H   -0.000000   0.000001  -0.001629   0.002758   0.000158   0.000236
    19  C   -0.000204  -0.006870  -0.002568   0.008827  -0.000590  -0.026462
    20  N    0.015513  -0.003424  -0.004488   0.001063   0.001581   0.004835
    21  H    0.000014  -0.000057  -0.000204  -0.000004   0.000006   0.000423
    22  H   -0.000080   0.001221   0.000140   0.000015  -0.000040   0.003842
    23  H    0.000159  -0.000123  -0.003282  -0.000131   0.000074   0.000009
              13         14         15         16         17         18
     1  C   -0.005136  -0.013426  -0.046822  -0.370641   0.004887   0.010970
     2  C   -0.003959  -0.067993   0.049215   0.568418  -0.003065  -0.044798
     3  C    0.000382   0.441062  -0.043634   0.092388  -0.025289   0.046895
     4  C    0.021583  -0.069671   0.057070  -0.458872  -0.026433  -0.091924
     5  C   -0.036840  -0.009232  -0.020236  -0.039589   0.008797  -0.018432
     6  C    0.351616   0.002905   0.024285   0.128782  -0.004580   0.003621
     7  H   -0.005321   0.002279  -0.009980   0.001447  -0.000001  -0.000000
     8  H    0.000119   0.000211   0.001506   0.010211  -0.000000   0.000001
     9  H   -0.000057  -0.001893  -0.000883   0.021803  -0.005047  -0.001629
    10  H   -0.001013   0.000061   0.000180  -0.010893   0.000087   0.002758
    11  H   -0.007275   0.002895   0.000010   0.014229  -0.000159   0.000158
    12  H   -0.029428   0.000071  -0.000540   0.024582  -0.000028   0.000236
    13  H    0.558371  -0.000186  -0.000104  -0.006647   0.000004  -0.000036
    14  H   -0.000186   0.534956  -0.010189   0.021161  -0.000006  -0.000114
    15  O   -0.000104  -0.010189   8.452510  -0.045779  -0.000410   0.000278
    16  C   -0.006647   0.021161  -0.045779   5.893414   0.431661   0.417949
    17  H    0.000004  -0.000006  -0.000410   0.431661   0.556498  -0.030521
    18  H   -0.000036  -0.000114   0.000278   0.417949  -0.030521   0.568758
    19  C    0.003805   0.003284   0.079616  -0.107170  -0.069973  -0.012164
    20  N    0.000785   0.009191  -0.111036   0.013082   0.008076   0.007178
    21  H   -0.000008   0.000020   0.001057  -0.111467  -0.007684   0.002111
    22  H   -0.000047   0.000019  -0.001675   0.011809   0.004696  -0.006728
    23  H    0.000010  -0.026158  -0.006375  -0.026063   0.001973  -0.000037
              19         20         21         22         23
     1  C    0.365391   0.162613   0.032284  -0.066281   0.017701
     2  C   -1.211508  -0.393237  -0.112397   0.100201  -0.027181
     3  C    0.425300   0.146829   0.022682  -0.000064   0.347185
     4  C   -0.093198   0.023545   0.038171  -0.067721   0.019703
     5  C   -0.042472  -0.028639  -0.001284   0.017797   0.012657
     6  C   -0.068920  -0.006403  -0.004134   0.012610  -0.003312
     7  H   -0.000204   0.015513   0.000014  -0.000080   0.000159
     8  H   -0.006870  -0.003424  -0.000057   0.001221  -0.000123
     9  H   -0.002568  -0.004488  -0.000204   0.000140  -0.003282
    10  H    0.008827   0.001063  -0.000004   0.000015  -0.000131
    11  H   -0.000590   0.001581   0.000006  -0.000040   0.000074
    12  H   -0.026462   0.004835   0.000423   0.003842   0.000009
    13  H    0.003805   0.000785  -0.000008  -0.000047   0.000010
    14  H    0.003284   0.009191   0.000020   0.000019  -0.026158
    15  O    0.079616  -0.111036   0.001057  -0.001675  -0.006375
    16  C   -0.107170   0.013082  -0.111467   0.011809  -0.026063
    17  H   -0.069973   0.008076  -0.007684   0.004696   0.001973
    18  H   -0.012164   0.007178   0.002111  -0.006728  -0.000037
    19  C    5.926137   0.139121   0.507970   0.326780  -0.011858
    20  N    0.139121   7.068864  -0.073243  -0.043760  -0.003375
    21  H    0.507970  -0.073243   0.595640  -0.041578  -0.000050
    22  H    0.326780  -0.043760  -0.041578   0.607274  -0.000073
    23  H   -0.011858  -0.003375  -0.000050  -0.000073   0.521796
 Mulliken charges:
               1
     1  C   -0.108332
     2  C   -0.540352
     3  C   -0.180320
     4  C    0.276125
     5  C   -0.474113
     6  C   -0.129953
     7  H    0.189188
     8  H    0.180727
     9  H    0.148248
    10  H    0.142182
    11  H    0.146440
    12  H    0.136733
    13  H    0.159382
    14  H    0.180755
    15  O   -0.368063
    16  C   -0.473815
    17  H    0.156517
    18  H    0.145469
    19  C   -0.132273
    20  N    0.065330
    21  H    0.151731
    22  H    0.141643
    23  H    0.186751
 Sum of Mulliken charges =  -0.00000
 Mulliken charges with hydrogens summed into heavy atoms:
               1
     1  C    0.261583
     2  C   -0.540352
     3  C    0.187186
     4  C    0.424373
     5  C   -0.185491
     6  C    0.166162
    15  O   -0.368063
    16  C   -0.171829
    19  C    0.161101
    20  N    0.065330
 APT charges:
               1
     1  C   -0.725431
     2  C   -0.755479
     3  C   -0.682158
     4  C   -0.074885
     5  C   -1.157747
     6  C   -0.785690
     7  H    0.471046
     8  H    0.509490
     9  H    0.519474
    10  H    0.492878
    11  H    0.455302
    12  H    0.331851
    13  H    0.591721
    14  H    0.470453
    15  O   -0.275916
    16  C   -1.167619
    17  H    0.465607
    18  H    0.472734
    19  C   -0.606745
    20  N    0.068878
    21  H    0.571603
    22  H    0.333937
    23  H    0.476694
 Sum of APT charges =  -0.00000
 APT charges with hydrogens summed into heavy atoms:
               1
     1  C    0.255105
     2  C   -0.755479
     3  C    0.264989
     4  C    0.444589
     5  C   -0.209567
     6  C    0.137883
    15  O   -0.275916
    16  C   -0.229277
    19  C    0.298795
    20  N    0.068878
 Electronic spatial extent (au):  <R**2>=           1233.6402
 Charge=             -0.0000 electrons
 Dipole moment (field-independent basis, Debye):
    X=             -4.9039    Y=              4.3591    Z=              0.3245  Tot=              6.5693
 Quadrupole moment (field-independent basis, Debye-Ang):
   XX=            -71.0716   YY=            -65.2297   ZZ=            -58.5927
   XY=              9.3021   XZ=             -1.2865   YZ=             -1.9314
 Traceless Quadrupole moment (field-independent basis, Debye-Ang):
   XX=             -6.1069   YY=             -0.2650   ZZ=              6.3720
   XY=              9.3021   XZ=             -1.2865   YZ=             -1.9314
 Octapole moment (field-independent basis, Debye-Ang**2):
  XXX=            -53.0984  YYY=             -3.8217  ZZZ=              0.0396  XYY=            -16.8817
  XXY=             12.0270  XXZ=             -7.6556  XZZ=             -7.4180  YZZ=             -3.7090
  YYZ=              2.7053  XYZ=             -0.5004
 Hexadecapole moment (field-independent basis, Debye-Ang**3):
 XXXX=           -768.5211 YYYY=           -618.8303 ZZZZ=           -365.4340 XXXY=             68.2367
 XXXZ=             -2.1348 YYYX=             51.0138 YYYZ=            -19.7762 ZZZX=             11.5170
 ZZZY=            -12.3076 XXYY=           -229.6211 XXZZ=           -172.9062 YYZZ=           -164.6158
 XXYZ=              2.1830 YYXZ=              6.8983 ZZXY=             14.2387
 N-N= 5.771426959493D+02 E-N=-2.181407626529D+03  KE= 4.383459572607D+02
  Exact polarizability:   0.000   0.000   0.000   0.000   0.000   0.000
 Approx polarizability: 240.231  17.554 162.273  54.438  14.659 184.820
 Calling FoFJK, ICntrl=    100147 FMM=F ISym2X=0 I1Cent= 0 IOpClX= 0 NMat=1 NMatS=1 NMatT=0.
 -------------------------------------------------------------------
 Center     Atomic                   Forces (Hartrees/Bohr)
 Number     Number              X              Y              Z
 -------------------------------------------------------------------
      1        6           0.000016909   -0.000003310   -0.000027229
      2        6          -0.000033774    0.000032180   -0.000004358
      3        6          -0.000001358    0.000001498    0.000018690
      4        6           0.000037945    0.000008023    0.000028781
      5        6           0.000026117    0.000001170   -0.000014228
      6        6          -0.000025154    0.000010879    0.000017565
      7        1           0.000005684   -0.000002291   -0.000000694
      8        1          -0.000003145   -0.000001489   -0.000001110
      9        1           0.000000706    0.000000697   -0.000000895
     10        1          -0.000002280   -0.000001398    0.000001667
     11        1          -0.000003335   -0.000001332    0.000004703
     12        1           0.000019916   -0.000002551    0.000011057
     13        1           0.000000374    0.000000077    0.000002179
     14        1          -0.000010256    0.000002987    0.000001577
     15        8           0.000000571   -0.000001519   -0.000001381
     16        6           0.000005737   -0.000021124   -0.000040107
     17        1           0.000003590   -0.000003004   -0.000003256
     18        1          -0.000000177    0.000003485    0.000000668
     19        6          -0.000014504   -0.000032588    0.000009367
     20        7           0.000000005    0.000014067    0.000009843
     21        1          -0.000002145    0.000002461   -0.000000319
     22        1          -0.000015661   -0.000004559   -0.000017520
     23        1          -0.000005764   -0.000002358    0.000005000
 -------------------------------------------------------------------
 Cartesian Forces:  Max     0.000040107 RMS     0.000013752
 IRC-IRC-IRC-IRC-IRC-IRC-IRC-IRC-IRC-IRC-IRC-IRC-IRC-IRC-IRC-IRC-IRC-IRC
          ******** Start new reaction path calculation ********
 Supplied step size of   0.0200 bohr.
    Integration on MW PES will use step size of   0.0560 sqrt(amu)*bohr.
 Point Number:   0          Path Number:   1
 Calculating another point on the path.
 IRC-IRC-IRC-IRC-IRC-IRC-IRC-IRC-IRC-IRC-IRC-IRC-IRC-IRC-IRC-IRC-IRC-IRC
                          Input orientation:                          
 ---------------------------------------------------------------------
 Center     Atomic      Atomic             Coordinates (Angstroms)
 Number     Number       Type             X           Y           Z
 ---------------------------------------------------------------------
      1          6           0        1.248532    0.872420   -0.705319
      2          6           0        1.028130   -0.664089   -0.021059
      3          6           0        0.224056   -0.256994    1.374742
      4          6           0       -1.085222    0.447367    1.057689
      5          6           0       -0.820904    1.837536    0.447458
      6          6           0        0.034429    1.773039   -0.831131
      7          1           0        1.987226    1.263771   -0.005831
      8          1           0        1.733437    0.664279   -1.659189
      9          1           0       -1.593418    0.603504    2.022305
     10          1           0       -1.768861    2.345795    0.236539
     11          1           0       -0.298925    2.443874    1.199390
     12          1           0       -0.576574    1.502525   -1.696773
     13          1           0        0.417845    2.778616   -1.057224
     14          1           0        0.937184    0.356817    1.924748
     15          8           0        2.187702   -1.100149    0.313292
     16          6           0       -1.959315   -0.476238    0.206104
     17          1           0       -2.282123   -1.325903    0.819399
     18          1           0       -2.867475    0.033956   -0.134992
     19          6           0       -1.191319   -1.036080   -1.025360
     20          7           0        0.177458   -1.404997   -0.809326
     21          1           0       -1.711964   -1.916605   -1.420229
     22          1           0       -1.231428   -0.292539   -1.839488
     23          1           0        0.093411   -1.207303    1.893591
 ---------------------------------------------------------------------
                    Distance matrix (angstroms):
                    1          2          3          4          5
     1  C    0.000000
     2  C    1.696363   0.000000
     3  C    2.579105   1.661482   0.000000
     4  C    2.955550   2.620169   1.520150   0.000000
     5  C    2.557911   3.145880   2.517708   1.541044   0.000000
     6  C    1.516901   2.753770   3.003809   2.564891   1.539657
     7  H    1.090003   2.153309   2.706931   3.352242   2.901770
     8  H    1.090103   2.223846   3.511654   3.920882   3.512713
     9  H    3.948281   3.557336   2.112582   1.101420   2.144704
    10  H    3.487491   4.116906   3.470120   2.178457   1.096101
    11  H    2.914105   3.593050   2.756619   2.150438   1.097957
    12  H    2.170490   3.174478   3.629204   2.993182   2.183955
    13  H    2.108900   3.646684   3.894476   3.488092   2.164301
    14  H    2.698154   2.199246   1.089872   2.202298   2.732359
    15  O    2.410526   1.283178   2.386104   3.696074   4.207101
    16  C    3.597201   3.001952   2.486139   1.530451   2.589939
    17  H    4.429776   3.478813   2.780630   2.152636   3.504404
    18  H    4.239082   3.959291   3.452754   2.183993   2.789374
    19  C    3.114109   2.464336   2.893225   2.559485   3.250242
    20  N    2.518858   1.376209   2.467840   2.917423   3.618046
    21  H    4.129685   3.321835   3.783430   3.481558   4.286703
    22  H    2.965412   2.924096   3.528593   2.993739   3.152122
    23  H    3.523334   2.198787   1.090578   2.196780   3.492609
                    6          7          8          9         10
     6  C    0.000000
     7  H    2.180341   0.000000
     8  H    2.191268   1.776905   0.000000
     9  H    3.487089   4.167769   4.962364   0.000000
    10  H    2.172516   3.916339   4.322890   2.501063   0.000000
    11  H    2.164292   2.841072   3.933056   2.395801   1.759947
    12  H    1.093545   3.080480   2.457686   3.959009   2.422880
    13  H    1.099687   2.421392   2.561946   4.273147   2.577371
    14  H    3.227308   2.377454   3.684176   2.544468   3.758825
    15  O    3.768487   2.393772   2.685190   4.485535   5.247362
    16  C    3.179641   4.318301   4.291447   2.144367   2.828616
    17  H    4.206436   5.061102   5.121420   2.375691   3.752936
    18  H    3.453993   5.009715   4.887625   2.569346   2.586424
    19  C    3.071048   4.053628   3.441971   3.483989   3.655546
    20  N    3.181328   3.323129   2.724930   3.897205   4.353209
    21  H    4.124367   5.079303   4.311480   4.268025   4.573420
    22  H    2.624079   4.017975   3.120646   3.980876   3.399931
    23  H    4.038567   3.646991   4.337597   2.478100   4.340321
                   11         12         13         14         15
    11  H    0.000000
    12  H    3.057938   0.000000
    13  H    2.391258   1.739627   0.000000
    14  H    2.531782   4.088951   3.876465   0.000000
    15  O    4.419116   4.295986   4.478339   2.506658   0.000000
    16  C    3.502937   3.073828   4.223857   3.469498   4.195057
    17  H    4.276527   4.152111   5.259146   3.797009   4.504047
    18  H    3.766395   3.137528   4.379156   4.338456   5.200189
    19  C    4.225631   2.696891   4.140330   3.895359   3.635090
    20  N    4.367573   3.132062   4.197840   3.340109   2.322560
    21  H    5.279476   3.613314   5.168459   4.834801   4.345008
    22  H    4.194317   1.916104   3.572678   4.392495   4.120333
    23  H    3.737237   4.547831   4.969921   1.777468   2.625810
                   16         17         18         19         20
    16  C    0.000000
    17  H    1.096479   0.000000
    18  H    1.096084   1.761453   0.000000
    19  C    1.555552   2.162634   2.178814   0.000000
    20  N    2.541552   2.951023   3.434666   1.433988   0.000000
    21  H    2.186504   2.385360   2.606094   1.096502   2.050576
    22  H    2.178994   3.039981   2.385070   1.103298   2.069724
    23  H    2.756039   2.609812   3.797726   3.193764   2.711440
                   21         22         23
    21  H    0.000000
    22  H    1.744788   0.000000
    23  H    3.839778   4.065449   0.000000
 Symmetry turned off by external request.
 Stoichiometry    C8H13NO
 Framework group  C1[X(C8H13NO)]
 Deg. of freedom    63
 Full point group                 C1      NOp   1
 Rotational constants (GHZ):           1.8401597           1.4612881           1.2117567
 Standard basis: 6-31+G(d,p) (6D, 7F)
   255 basis functions,   411 primitive gaussians,   255 cartesian basis functions
    38 alpha electrons       38 beta electrons
       nuclear repulsion energy       577.1291822110 Hartrees.
 NAtoms=   23 NActive=   23 NUniq=   23 SFac= 1.00D+00 NAtFMM=   60 NAOKFM=F Big=F
 Integral buffers will be    131072 words long.
 Raffenetti 2 integral format.
 Two-electron integral symmetry is turned off.
 One-electron integrals computed using PRISM.
 NBasis=   255 RedAO= T EigKep=  1.18D-05  NBF=   255
 NBsUse=   255 1.00D-06 EigRej= -1.00D+00 NBFU=   255
 Initial guess from the checkpoint file:  "/scratch/Grace/g03/Gau-104067.chk"
 B after Tr=    -0.330790   -0.074868   -0.028825
         Rot=    1.000000    0.000039    0.000008    0.000007 Ang=   0.00 deg.
 ExpMin= 4.38D-02 ExpMax= 5.48D+03 ExpMxC= 8.25D+02 IAcc=2 IRadAn=         4 AccDes= 0.00D+00
 Harris functional with IExCor=  402 and IRadAn=       4 diagonalized for initial guess.
 HarFok:  IExCor=  402 AccDes= 0.00D+00 IRadAn=         4 IDoV= 1 UseB2=F ITyADJ=14
 ICtDFT=  3500011 ScaDFX=  1.000000  1.000000  1.000000  1.000000
 FoFCou: FMM=F IPFlag=           0 FMFlag=      100000 FMFlg1=           0
         NFxFlg=           0 DoJE=T BraDBF=F KetDBF=T FulRan=T
         wScrn=  0.000000 ICntrl=       500 IOpCl=  0 I1Cent=   200000004 NGrid=           0
         NMat0=    1 NMatS0=      1 NMatT0=    0 NMatD0=    1 NMtDS0=    0 NMtDT0=    0
 Symmetry not used in FoFCou.
 Requested convergence on RMS density matrix=1.00D-08 within 128 cycles.
 Requested convergence on MAX density matrix=1.00D-06.
 Requested convergence on             energy=1.00D-06.
 No special actions if energy rises.
 EnCoef did     5 forward-backward iterations
 SCF Done:  E(RB3LYP) =  -442.547267956     A.U. after   13 cycles
            NFock= 13  Conv=0.48D-08     -V/T= 2.0096
 DoSCS=F DFT=T ScalE2(SS,OS)=  1.000000  1.000000
 Range of M.O.s used for correlation:     1   255
 NBasis=   255 NAE=    38 NBE=    38 NFC=     0 NFV=     0
 NROrb=    255 NOA=    38 NOB=    38 NVA=   217 NVB=   217

 **** Warning!!: The largest alpha MO coefficient is  0.94717137D+02


 **** Warning!!: The smallest alpha delta epsilon is  0.84556416D-01

 Symmetrizing basis deriv contribution to polar:
 IMax=3 JMax=2 DiffMx= 0.00D+00
 Calling FoFJK, ICntrl=      2147 FMM=F ISym2X=0 I1Cent= 0 IOpClX= 0 NMat=1 NMatS=1 NMatT=0.
 -------------------------------------------------------------------
 Center     Atomic                   Forces (Hartrees/Bohr)
 Number     Number              X              Y              Z
 -------------------------------------------------------------------
      1        6          -0.000032040    0.000046574   -0.000214599
      2        6          -0.000380623   -0.000531217    0.000931010
      3        6           0.000094979    0.000111293   -0.000005743
      4        6          -0.000005623    0.000080425    0.000134078
      5        6           0.000016941    0.000013655   -0.000026265
      6        6          -0.000063063   -0.000093844   -0.000015357
      7        1          -0.000009803   -0.000049490    0.000014076
      8        1          -0.000008354   -0.000036631   -0.000002764
      9        1          -0.000014558    0.000021425   -0.000004074
     10        1           0.000000622    0.000002645   -0.000007663
     11        1          -0.000002768    0.000003673   -0.000000699
     12        1           0.000016790   -0.000007450    0.000007683
     13        1           0.000013434   -0.000013863   -0.000004678
     14        1          -0.000027410    0.000020410    0.000023813
     15        8           0.000122484    0.000010629   -0.000209045
     16        6           0.000046861   -0.000020414   -0.000037002
     17        1           0.000002500    0.000003285    0.000003490
     18        1           0.000001656    0.000002791    0.000001122
     19        6          -0.000042979   -0.000081773    0.000138567
     20        7           0.000310476    0.000546287   -0.000746459
     21        1           0.000014851   -0.000017401    0.000013184
     22        1          -0.000038376   -0.000039847   -0.000032421
     23        1          -0.000015999    0.000028841    0.000039744
 -------------------------------------------------------------------
 Cartesian Forces:  Max     0.000931010 RMS     0.000188846
 IRC-IRC-IRC-IRC-IRC-IRC-IRC-IRC-IRC-IRC-IRC-IRC-IRC-IRC-IRC-IRC-IRC-IRC
 Pt  1 Step number   1 out of a maximum of 100
 Point Number:   1          Path Number:   1
   CHANGE IN THE REACTION COORDINATE =    0.05602
   NET REACTION COORDINATE UP TO THIS POINT =    0.05602
  # OF POINTS ALONG THE PATH =   1
  # OF STEPS =   1

 Calculating another point on the path.
 IRC-IRC-IRC-IRC-IRC-IRC-IRC-IRC-IRC-IRC-IRC-IRC-IRC-IRC-IRC-IRC-IRC-IRC
                          Input orientation:                          
 ---------------------------------------------------------------------
 Center     Atomic      Atomic             Coordinates (Angstroms)
 Number     Number       Type             X           Y           Z
 ---------------------------------------------------------------------
      1          6           0        1.248278    0.872696   -0.706357
      2          6           0        1.026075   -0.667002   -0.015919
      3          6           0        0.224596   -0.256353    1.374649
      4          6           0       -1.085414    0.447749    1.058289
      5          6           0       -0.820904    1.837593    0.447404
      6          6           0        0.034249    1.772485   -0.831267
      7          1           0        1.986590    1.260893   -0.004955
      8          1           0        1.733011    0.661785   -1.659484
      9          1           0       -1.594469    0.604930    2.022114
     10          1           0       -1.768662    2.346011    0.235952
     11          1           0       -0.298897    2.444194    1.199092
     12          1           0       -0.576714    1.502158   -1.696983
     13          1           0        0.418641    2.777757   -1.057648
     14          1           0        0.935962    0.358055    1.926525
     15          8           0        2.188256   -1.100124    0.312448
     16          6           0       -1.959063   -0.476237    0.206049
     17          1           0       -2.282147   -1.325565    0.819734
     18          1           0       -2.867361    0.033927   -0.134912
     19          6           0       -1.191550   -1.036458   -1.024629
     20          7           0        0.178896   -1.402531   -0.812940
     21          1           0       -1.710873   -1.918017   -1.419278
     22          1           0       -1.233022   -0.294924   -1.840786
     23          1           0        0.092746   -1.205424    1.895848
 ---------------------------------------------------------------------
                    Distance matrix (angstroms):
                    1          2          3          4          5
     1  C    0.000000
     2  C    1.701984   0.000000
     3  C    2.579392   1.656708   0.000000
     4  C    2.956463   2.618201   1.520516   0.000000
     5  C    2.558067   3.146267   2.517432   1.541042   0.000000
     6  C    1.516275   2.756738   3.003079   2.564955   1.539651
     7  H    1.089847   2.153947   2.703695   3.350955   2.901592
     8  H    1.089909   2.228618   3.510592   3.921176   3.513401
     9  H    3.949363   3.555087   2.114242   1.101273   2.144195
    10  H    3.487195   4.117309   3.470159   2.178638   1.096105
    11  H    2.914463   3.593236   2.756415   2.150402   1.097949
    12  H    2.169830   3.178076   3.628965   2.993673   2.184157
    13  H    2.107359   3.649731   3.893526   3.488311   2.164616
    14  H    2.700826   2.198170   1.090003   2.201781   2.731924
    15  O    2.411128   1.282998   2.386667   3.697175   4.207545
    16  C    3.597102   2.999452   2.486432   1.530793   2.589878
    17  H    4.430034   3.475105   2.781170   2.152607   3.504201
    18  H    4.238935   3.957816   3.453004   2.184105   2.789316
    19  C    3.114310   2.464113   2.893193   2.559821   3.250297
    20  N    2.516266   1.376212   2.470093   2.919505   3.617522
    21  H    4.129517   3.320443   3.783278   3.482296   4.287324
    22  H    2.967679   2.927815   3.530603   2.996329   3.154882
    23  H    3.524955   2.194506   1.090765   2.196029   3.491803
                    6          7          8          9         10
     6  C    0.000000
     7  H    2.180861   0.000000
     8  H    2.192120   1.777836   0.000000
     9  H    3.486788   4.166927   4.962814   0.000000
    10  H    2.172182   3.916304   4.323310   2.500416   0.000000
    11  H    2.164379   2.841370   3.934093   2.395572   1.759968
    12  H    1.093534   3.080860   2.458142   3.958854   2.422615
    13  H    1.099808   2.422293   2.562638   4.273023   2.577615
    14  H    3.227865   2.376878   3.686055   2.544242   3.758323
    15  O    3.768251   2.390777   2.683298   4.487669   5.247751
    16  C    3.179004   4.316286   4.290305   2.144748   2.828821
    17  H    4.205877   5.058853   5.120310   2.376011   3.752990
    18  H    3.453524   5.008311   4.886915   2.568864   2.586583
    19  C    3.070852   4.051930   3.440948   3.484127   3.655574
    20  N    3.178362   3.318799   2.719064   3.900289   4.352553
    21  H    4.124440   5.077107   4.309688   4.268722   4.574391
    22  H    2.626649   4.019545   3.121780   3.982760   3.402101
    23  H    4.038380   3.644505   4.337894   2.477905   4.339674
                   11         12         13         14         15
    11  H    0.000000
    12  H    3.058082   0.000000
    13  H    2.391443   1.739723   0.000000
    14  H    2.531010   4.089862   3.876579   0.000000
    15  O    4.419758   4.295899   4.477350   2.509934   0.000000
    16  C    3.503028   3.073510   4.223611   3.469475   4.195332
    17  H    4.276479   4.151913   5.258904   3.796813   4.504737
    18  H    3.766426   3.137328   4.379252   4.338185   5.200525
    19  C    4.225719   2.697157   4.140295   3.896188   3.635232
    20  N    4.367362   3.128849   4.194302   3.343274   2.322816
    21  H    5.280002   3.614005   5.168742   4.835353   4.344079
    22  H    4.197167   1.918573   3.575285   4.395851   4.121881
    23  H    3.736116   4.548363   4.969414   1.776632   2.628575
                   16         17         18         19         20
    16  C    0.000000
    17  H    1.096517   0.000000
    18  H    1.096142   1.761262   0.000000
    19  C    1.554829   2.162096   2.178454   0.000000
    20  N    2.543074   2.954366   3.435522   1.434204   0.000000
    21  H    2.186782   2.385483   2.607133   1.096626   2.050511
    22  H    2.179345   3.039942   2.385207   1.103496   2.068035
    23  H    2.756275   2.610089   3.797658   3.194863   2.717316
                   21         22         23
    21  H    0.000000
    22  H    1.743685   0.000000
    23  H    3.840688   4.068058   0.000000
 Symmetry turned off by external request.
 Stoichiometry    C8H13NO
 Framework group  C1[X(C8H13NO)]
 Deg. of freedom    63
 Full point group                 C1      NOp   1
 Rotational constants (GHZ):           1.8401965           1.4607498           1.2119725
 Standard basis: 6-31+G(d,p) (6D, 7F)
   255 basis functions,   411 primitive gaussians,   255 cartesian basis functions
    38 alpha electrons       38 beta electrons
       nuclear repulsion energy       577.1145922710 Hartrees.
 NAtoms=   23 NActive=   23 NUniq=   23 SFac= 1.00D+00 NAtFMM=   60 NAOKFM=F Big=F
 Integral buffers will be    131072 words long.
 Raffenetti 2 integral format.
 Two-electron integral symmetry is turned off.
 One-electron integrals computed using PRISM.
 NBasis=   255 RedAO= T EigKep=  1.18D-05  NBF=   255
 NBsUse=   255 1.00D-06 EigRej= -1.00D+00 NBFU=   255
 Initial guess from the checkpoint file:  "/scratch/Grace/g03/Gau-104067.chk"
 B after Tr=    -0.000045   -0.000063    0.000045
         Rot=    1.000000    0.000040    0.000007    0.000007 Ang=   0.00 deg.
 ExpMin= 4.38D-02 ExpMax= 5.48D+03 ExpMxC= 8.25D+02 IAcc=2 IRadAn=         4 AccDes= 0.00D+00
 Harris functional with IExCor=  402 and IRadAn=       4 diagonalized for initial guess.
 HarFok:  IExCor=  402 AccDes= 0.00D+00 IRadAn=         4 IDoV= 1 UseB2=F ITyADJ=14
 ICtDFT=  3500011 ScaDFX=  1.000000  1.000000  1.000000  1.000000
 FoFCou: FMM=F IPFlag=           0 FMFlag=      100000 FMFlg1=           0
         NFxFlg=           0 DoJE=T BraDBF=F KetDBF=T FulRan=T
         wScrn=  0.000000 ICntrl=       500 IOpCl=  0 I1Cent=   200000004 NGrid=           0
         NMat0=    1 NMatS0=      1 NMatT0=    0 NMatD0=    1 NMtDS0=    0 NMtDT0=    0
 Symmetry not used in FoFCou.
 Requested convergence on RMS density matrix=1.00D-08 within 128 cycles.
 Requested convergence on MAX density matrix=1.00D-06.
 Requested convergence on             energy=1.00D-06.
 No special actions if energy rises.
 EnCoef did     5 forward-backward iterations
 SCF Done:  E(RB3LYP) =  -442.547305792     A.U. after   13 cycles
            NFock= 13  Conv=0.59D-08     -V/T= 2.0096
 DoSCS=F DFT=T ScalE2(SS,OS)=  1.000000  1.000000
 Range of M.O.s used for correlation:     1   255
 NBasis=   255 NAE=    38 NBE=    38 NFC=     0 NFV=     0
 NROrb=    255 NOA=    38 NOB=    38 NVA=   217 NVB=   217

 **** Warning!!: The largest alpha MO coefficient is  0.94167668D+02


 **** Warning!!: The smallest alpha delta epsilon is  0.84482214D-01

 Symmetrizing basis deriv contribution to polar:
 IMax=3 JMax=2 DiffMx= 0.00D+00
 Calling FoFJK, ICntrl=      2147 FMM=F ISym2X=0 I1Cent= 0 IOpClX= 0 NMat=1 NMatS=1 NMatT=0.
 -------------------------------------------------------------------
 Center     Atomic                   Forces (Hartrees/Bohr)
 Number     Number              X              Y              Z
 -------------------------------------------------------------------
      1        6          -0.000089654    0.000102073   -0.000402782
      2        6          -0.000690703   -0.001122043    0.001873105
      3        6           0.000184206    0.000205977   -0.000032258
      4        6          -0.000083616    0.000139236    0.000209451
      5        6          -0.000006078    0.000020971   -0.000017730
      6        6          -0.000067805   -0.000205185   -0.000062738
      7        1          -0.000028576   -0.000095195    0.000026126
      8        1          -0.000011611   -0.000070502   -0.000006620
      9        1          -0.000031506    0.000040769   -0.000006763
     10        1           0.000006437    0.000007858   -0.000018529
     11        1           0.000001559    0.000009703   -0.000009887
     12        1          -0.000006203   -0.000009769   -0.000005842
     13        1           0.000026133   -0.000026853   -0.000013251
     14        1          -0.000034269    0.000033564    0.000045083
     15        8           0.000232910    0.000034086   -0.000415220
     16        6           0.000083122   -0.000001612   -0.000000436
     17        1          -0.000002222    0.000012336    0.000012890
     18        1           0.000003661   -0.000001497    0.000000250
     19        6          -0.000063726   -0.000110693    0.000250447
     20        7           0.000612941    0.001095059   -0.001494628
     21        1           0.000035763   -0.000043922    0.000030597
     22        1          -0.000049027   -0.000075534   -0.000032022
     23        1          -0.000021736    0.000061173    0.000070756
 -------------------------------------------------------------------
 Cartesian Forces:  Max     0.001873105 RMS     0.000376768
 IRC-IRC-IRC-IRC-IRC-IRC-IRC-IRC-IRC-IRC-IRC-IRC-IRC-IRC-IRC-IRC-IRC-IRC
 Pt  2 Step number   1 out of a maximum of 100
 Point Number:   2          Path Number:   1
   CHANGE IN THE REACTION COORDINATE =    0.05599
   NET REACTION COORDINATE UP TO THIS POINT =    0.11201
  # OF POINTS ALONG THE PATH =   2
  # OF STEPS =   1

 Calculating another point on the path.
 IRC-IRC-IRC-IRC-IRC-IRC-IRC-IRC-IRC-IRC-IRC-IRC-IRC-IRC-IRC-IRC-IRC-IRC
                          Input orientation:                          
 ---------------------------------------------------------------------
 Center     Atomic      Atomic             Coordinates (Angstroms)
 Number     Number       Type             X           Y           Z
 ---------------------------------------------------------------------
      1          6           0        1.248005    0.872980   -0.707439
      2          6           0        1.024106   -0.670030   -0.010776
      3          6           0        0.225104   -0.255762    1.374540
      4          6           0       -1.085651    0.448123    1.058865
      5          6           0       -0.820924    1.837646    0.447354
      6          6           0        0.034064    1.771917   -0.831448
      7          1           0        1.985826    1.257966   -0.004008
      8          1           0        1.732666    0.659366   -1.659779
      9          1           0       -1.595529    0.606325    2.021923
     10          1           0       -1.768448    2.346270    0.235351
     11          1           0       -0.298832    2.444501    1.198764
     12          1           0       -0.576961    1.501864   -1.697223
     13          1           0        0.419460    2.776883   -1.058094
     14          1           0        0.934835    0.359206    1.928160
     15          8           0        2.188812   -1.100088    0.311605
     16          6           0       -1.958840   -0.476230    0.206044
     17          1           0       -2.282218   -1.325200    0.820132
     18          1           0       -2.867265    0.033869   -0.134857
     19          6           0       -1.191733   -1.036761   -1.023902
     20          7           0        0.180339   -1.400004   -0.816494
     21          1           0       -1.709687   -1.919387   -1.418329
     22          1           0       -1.234535   -0.297176   -1.841967
     23          1           0        0.092063   -1.203557    1.898131
 ---------------------------------------------------------------------
                    Distance matrix (angstroms):
                    1          2          3          4          5
     1  C    0.000000
     2  C    1.707733   0.000000
     3  C    2.579733   1.652006   0.000000
     4  C    2.957412   2.616386   1.520915   0.000000
     5  C    2.558240   3.146817   2.517182   1.541038   0.000000
     6  C    1.515625   2.759854   3.002393   2.565049   1.539694
     7  H    1.089683   2.154558   2.700354   3.349554   2.901310
     8  H    1.089715   2.233509   3.509601   3.921551   3.514139
     9  H    3.950469   3.552948   2.115893   1.101128   2.143695
    10  H    3.486893   4.117888   3.470241   2.178842   1.096105
    11  H    2.914789   3.593530   2.756235   2.150391   1.097939
    12  H    2.169255   3.181925   3.628813   2.994187   2.184371
    13  H    2.105775   3.652900   3.892611   3.488552   2.164969
    14  H    2.703409   2.196991   1.090137   2.201350   2.731530
    15  O    2.411756   1.282739   2.387230   3.698305   4.207994
    16  C    3.597037   2.997088   2.486685   1.531075   2.589808
    17  H    4.430343   3.471518   2.781677   2.152543   3.503989
    18  H    4.238798   3.956468   3.453247   2.184200   2.789282
    19  C    3.114415   2.463911   2.893079   2.560088   3.250278
    20  N    2.513616   1.376222   2.472230   2.921519   3.616934
    21  H    4.129240   3.318994   3.783012   3.482961   4.287886
    22  H    2.969751   2.931508   3.532447   2.998744   3.157456
    23  H    3.526642   2.190270   1.090945   2.195319   3.491019
                    6          7          8          9         10
     6  C    0.000000
     7  H    2.181324   0.000000
     8  H    2.192978   1.778761   0.000000
     9  H    3.486531   4.165949   4.963328   0.000000
    10  H    2.171864   3.916155   4.323767   2.499829   0.000000
    11  H    2.164474   2.841512   3.935093   2.395392   1.759995
    12  H    1.093548   3.081289   2.458777   3.958726   2.422293
    13  H    1.099934   2.423160   2.563282   4.272938   2.577861
    14  H    3.228401   2.376052   3.687809   2.544130   3.757893
    15  O    3.768013   2.387726   2.681437   4.489796   5.248153
    16  C    3.178399   4.314156   4.289299   2.145073   2.829066
    17  H    4.205355   5.056496   5.119351   2.376265   3.753081
    18  H    3.453080   5.006798   4.886307   2.568408   2.586823
    19  C    3.070552   4.050041   3.439955   3.484226   3.655573
    20  N    3.175328   3.314321   2.713274   3.903290   4.351864
    21  H    4.124418   5.074711   4.307906   4.269378   4.575362
    22  H    2.628999   4.020856   3.122890   3.984505   3.404133
    23  H    4.038244   3.641918   4.338293   2.477693   4.339080
                   11         12         13         14         15
    11  H    0.000000
    12  H    3.058212   0.000000
    13  H    2.391616   1.739832   0.000000
    14  H    2.530298   4.090794   3.876659   0.000000
    15  O    4.420355   4.295934   4.476336   2.513015   0.000000
    16  C    3.503111   3.073250   4.223399   3.469437   4.195636
    17  H    4.276427   4.151778   5.258695   3.796628   4.505483
    18  H    3.766502   3.137115   4.379390   4.337954   5.200875
    19  C    4.225719   2.697392   4.140168   3.896881   3.635336
    20  N    4.367046   3.125704   4.190696   3.346223   2.323042
    21  H    5.280455   3.614665   5.168944   4.835749   4.343066
    22  H    4.199807   1.920911   3.577707   4.398961   4.123329
    23  H    3.735002   4.549007   4.968939   1.775780   2.631373
                   16         17         18         19         20
    16  C    0.000000
    17  H    1.096553   0.000000
    18  H    1.096198   1.761066   0.000000
    19  C    1.554160   2.161669   2.178086   0.000000
    20  N    2.544608   2.957756   3.436351   1.434414   0.000000
    21  H    2.187091   2.385698   2.608159   1.096758   2.050405
    22  H    2.179685   3.039941   2.385293   1.103653   2.066324
    23  H    2.756514   2.610382   3.797616   3.195971   2.723155
                   21         22         23
    21  H    0.000000
    22  H    1.742644   0.000000
    23  H    3.841566   4.070593   0.000000
 Symmetry turned off by external request.
 Stoichiometry    C8H13NO
 Framework group  C1[X(C8H13NO)]
 Deg. of freedom    63
 Full point group                 C1      NOp   1
 Rotational constants (GHZ):           1.8402683           1.4601876           1.2121892
 Standard basis: 6-31+G(d,p) (6D, 7F)
   255 basis functions,   411 primitive gaussians,   255 cartesian basis functions
    38 alpha electrons       38 beta electrons
       nuclear repulsion energy       577.1006580092 Hartrees.
 NAtoms=   23 NActive=   23 NUniq=   23 SFac= 1.00D+00 NAtFMM=   60 NAOKFM=F Big=F
 Integral buffers will be    131072 words long.
 Raffenetti 2 integral format.
 Two-electron integral symmetry is turned off.
 One-electron integrals computed using PRISM.
 NBasis=   255 RedAO= T EigKep=  1.18D-05  NBF=   255
 NBsUse=   255 1.00D-06 EigRej= -1.00D+00 NBFU=   255
 Initial guess from the checkpoint file:  "/scratch/Grace/g03/Gau-104067.chk"
 B after Tr=    -0.000044   -0.000061    0.000045
         Rot=    1.000000    0.000040    0.000007    0.000007 Ang=   0.00 deg.
 ExpMin= 4.38D-02 ExpMax= 5.48D+03 ExpMxC= 8.25D+02 IAcc=2 IRadAn=         4 AccDes= 0.00D+00
 Harris functional with IExCor=  402 and IRadAn=       4 diagonalized for initial guess.
 HarFok:  IExCor=  402 AccDes= 0.00D+00 IRadAn=         4 IDoV= 1 UseB2=F ITyADJ=14
 ICtDFT=  3500011 ScaDFX=  1.000000  1.000000  1.000000  1.000000
 FoFCou: FMM=F IPFlag=           0 FMFlag=      100000 FMFlg1=           0
         NFxFlg=           0 DoJE=T BraDBF=F KetDBF=T FulRan=T
         wScrn=  0.000000 ICntrl=       500 IOpCl=  0 I1Cent=   200000004 NGrid=           0
         NMat0=    1 NMatS0=      1 NMatT0=    0 NMatD0=    1 NMtDS0=    0 NMtDT0=    0
 Symmetry not used in FoFCou.
 Requested convergence on RMS density matrix=1.00D-08 within 128 cycles.
 Requested convergence on MAX density matrix=1.00D-06.
 Requested convergence on             energy=1.00D-06.
 No special actions if energy rises.
 EnCoef did     5 forward-backward iterations
 SCF Done:  E(RB3LYP) =  -442.547368644     A.U. after   13 cycles
            NFock= 13  Conv=0.64D-08     -V/T= 2.0096
 DoSCS=F DFT=T ScalE2(SS,OS)=  1.000000  1.000000
 Range of M.O.s used for correlation:     1   255
 NBasis=   255 NAE=    38 NBE=    38 NFC=     0 NFV=     0
 NROrb=    255 NOA=    38 NOB=    38 NVA=   217 NVB=   217

 **** Warning!!: The largest alpha MO coefficient is  0.93598990D+02


 **** Warning!!: The smallest alpha delta epsilon is  0.84449861D-01

 Symmetrizing basis deriv contribution to polar:
 IMax=3 JMax=2 DiffMx= 0.00D+00
 Calling FoFJK, ICntrl=      2147 FMM=F ISym2X=0 I1Cent= 0 IOpClX= 0 NMat=1 NMatS=1 NMatT=0.
 -------------------------------------------------------------------
 Center     Atomic                   Forces (Hartrees/Bohr)
 Number     Number              X              Y              Z
 -------------------------------------------------------------------
      1        6          -0.000142258    0.000157887   -0.000618892
      2        6          -0.001025640   -0.001694690    0.002799318
      3        6           0.000259927    0.000292227   -0.000047329
      4        6          -0.000132017    0.000204613    0.000310000
      5        6          -0.000010183    0.000028331   -0.000030693
      6        6          -0.000105174   -0.000308260   -0.000105154
      7        1          -0.000042509   -0.000141102    0.000040021
      8        1          -0.000015707   -0.000105550   -0.000012800
      9        1          -0.000046799    0.000061320   -0.000009161
     10        1           0.000009921    0.000011839   -0.000027255
     11        1           0.000003144    0.000013862   -0.000015224
     12        1          -0.000010683   -0.000013364   -0.000010230
     13        1           0.000038141   -0.000040031   -0.000020105
     14        1          -0.000049809    0.000049316    0.000067426
     15        8           0.000373258    0.000043616   -0.000613559
     16        6           0.000116297   -0.000002907    0.000003586
     17        1          -0.000003257    0.000017420    0.000019352
     18        1           0.000004597   -0.000002890    0.000001481
     19        6          -0.000086815   -0.000143359    0.000377860
     20        7           0.000917009    0.001652676   -0.002211703
     21        1           0.000055451   -0.000063197    0.000045847
     22        1          -0.000073268   -0.000106690   -0.000049032
     23        1          -0.000033627    0.000088934    0.000106248
 -------------------------------------------------------------------
 Cartesian Forces:  Max     0.002799318 RMS     0.000563231
 IRC-IRC-IRC-IRC-IRC-IRC-IRC-IRC-IRC-IRC-IRC-IRC-IRC-IRC-IRC-IRC-IRC-IRC
 Pt  3 Step number   1 out of a maximum of 100
 Point Number:   3          Path Number:   1
   CHANGE IN THE REACTION COORDINATE =    0.05601
   NET REACTION COORDINATE UP TO THIS POINT =    0.16802
  # OF POINTS ALONG THE PATH =   3
  # OF STEPS =   1

 Calculating another point on the path.
 IRC-IRC-IRC-IRC-IRC-IRC-IRC-IRC-IRC-IRC-IRC-IRC-IRC-IRC-IRC-IRC-IRC-IRC
                          Input orientation:                          
 ---------------------------------------------------------------------
 Center     Atomic      Atomic             Coordinates (Angstroms)
 Number     Number       Type             X           Y           Z
 ---------------------------------------------------------------------
      1          6           0        1.247728    0.873273   -0.708574
      2          6           0        1.022184   -0.673116   -0.005634
      3          6           0        0.225579   -0.255215    1.374445
      4          6           0       -1.085895    0.448492    1.059436
      5          6           0       -0.820942    1.837693    0.447298
      6          6           0        0.033871    1.771350   -0.831645
      7          1           0        1.985019    1.254984   -0.003062
      8          1           0        1.732339    0.656989   -1.660117
      9          1           0       -1.596580    0.607707    2.021736
     10          1           0       -1.768232    2.346530    0.234753
     11          1           0       -0.298758    2.444799    1.198427
     12          1           0       -0.577221    1.501584   -1.697477
     13          1           0        0.420279    2.776010   -1.058541
     14          1           0        0.933734    0.360310    1.929730
     15          8           0        2.189368   -1.100046    0.310767
     16          6           0       -1.958628   -0.476231    0.206047
     17          1           0       -2.282287   -1.324845    0.820540
     18          1           0       -2.867181    0.033797   -0.134800
     19          6           0       -1.191897   -1.037021   -1.023186
     20          7           0        0.181779   -1.397422   -0.819989
     21          1           0       -1.708452   -1.920749   -1.417356
     22          1           0       -1.236100   -0.299396   -1.843145
     23          1           0        0.091331   -1.201704    1.900462
 ---------------------------------------------------------------------
                    Distance matrix (angstroms):
                    1          2          3          4          5
     1  C    0.000000
     2  C    1.713568   0.000000
     3  C    2.580164   1.647374   0.000000
     4  C    2.958394   2.614646   1.521314   0.000000
     5  C    2.558426   3.147447   2.516957   1.541037   0.000000
     6  C    1.514971   2.763055   3.001758   2.565154   1.539741
     7  H    1.089517   2.155140   2.697009   3.348110   2.900998
     8  H    1.089523   2.238484   3.508705   3.921974   3.514897
     9  H    3.951608   3.550868   2.117518   1.100986   2.143207
    10  H    3.486598   4.118552   3.470339   2.179044   1.096106
    11  H    2.915127   3.593890   2.756082   2.150382   1.097929
    12  H    2.168673   3.185868   3.628710   2.994716   2.184589
    13  H    2.104176   3.656142   3.891742   3.488800   2.165322
    14  H    2.705988   2.195774   1.090273   2.200928   2.731145
    15  O    2.412412   1.282457   2.387806   3.699435   4.208434
    16  C    3.597001   2.994798   2.486918   1.531355   2.589744
    17  H    4.430679   3.467974   2.782141   2.152475   3.503782
    18  H    4.238680   3.955195   3.453478   2.184297   2.789260
    19  C    3.114479   2.463737   2.892939   2.560333   3.250218
    20  N    2.510920   1.376254   2.474287   2.923463   3.616274
    21  H    4.128915   3.317518   3.782675   3.483587   4.288415
    22  H    2.971836   2.935296   3.534310   3.001146   3.160006
    23  H    3.528435   2.186114   1.091126   2.194614   3.490253
                    6          7          8          9         10
     6  C    0.000000
     7  H    2.181780   0.000000
     8  H    2.193846   1.779685   0.000000
     9  H    3.486290   4.164928   4.963886   0.000000
    10  H    2.171546   3.915983   4.324243   2.499255   0.000000
    11  H    2.164571   2.841632   3.936101   2.395222   1.760022
    12  H    1.093559   3.081709   2.459432   3.958617   2.421973
    13  H    1.100061   2.424039   2.563912   4.272863   2.578108
    14  H    3.228929   2.375148   3.689551   2.544044   3.757477
    15  O    3.767783   2.384620   2.679632   4.491908   5.248548
    16  C    3.177810   4.311982   4.288355   2.145396   2.829320
    17  H    4.204845   5.054081   5.118451   2.376515   3.753184
    18  H    3.452649   5.005247   4.885748   2.567965   2.587081
    19  C    3.070203   4.048054   3.438969   3.484315   3.655543
    20  N    3.172243   3.309728   2.707517   3.906213   4.351115
    21  H    4.124360   5.072203   4.306125   4.270007   4.576321
    22  H    2.631339   4.022140   3.124068   3.986237   3.406134
    23  H    4.038163   3.639337   4.338821   2.477442   4.338493
                   11         12         13         14         15
    11  H    0.000000
    12  H    3.058342   0.000000
    13  H    2.391781   1.739944   0.000000
    14  H    2.529611   4.091713   3.876726   0.000000
    15  O    4.420931   4.295991   4.475320   2.516008   0.000000
    16  C    3.503199   3.073018   4.223204   3.469386   4.195949
    17  H    4.276377   4.151669   5.258499   3.796424   4.506229
    18  H    3.766592   3.136921   4.379545   4.337723   5.201232
    19  C    4.225676   2.697594   4.139996   3.897506   3.635431
    20  N    4.366644   3.122547   4.187042   3.349031   2.323242
    21  H    5.280868   3.615317   5.169119   4.836048   4.342000
    22  H    4.202425   1.923245   3.580128   4.402042   4.124828
    23  H    3.733900   4.549713   4.968512   1.774933   2.634241
                   16         17         18         19         20
    16  C    0.000000
    17  H    1.096587   0.000000
    18  H    1.096254   1.760876   0.000000
    19  C    1.553505   2.161277   2.177719   0.000000
    20  N    2.546113   2.961119   3.437154   1.434631   0.000000
    21  H    2.187387   2.385910   2.609187   1.096893   2.050291
    22  H    2.180024   3.039946   2.385348   1.103801   2.064677
    23  H    2.756753   2.610643   3.797571   3.197110   2.728981
                   21         22         23
    21  H    0.000000
    22  H    1.741608   0.000000
    23  H    3.842416   4.073184   0.000000
 Symmetry turned off by external request.
 Stoichiometry    C8H13NO
 Framework group  C1[X(C8H13NO)]
 Deg. of freedom    63
 Full point group                 C1      NOp   1
 Rotational constants (GHZ):           1.8403418           1.4596117           1.2124097
 Standard basis: 6-31+G(d,p) (6D, 7F)
   255 basis functions,   411 primitive gaussians,   255 cartesian basis functions
    38 alpha electrons       38 beta electrons
       nuclear repulsion energy       577.0860637993 Hartrees.
 NAtoms=   23 NActive=   23 NUniq=   23 SFac= 1.00D+00 NAtFMM=   60 NAOKFM=F Big=F
 Integral buffers will be    131072 words long.
 Raffenetti 2 integral format.
 Two-electron integral symmetry is turned off.
 One-electron integrals computed using PRISM.
 NBasis=   255 RedAO= T EigKep=  1.19D-05  NBF=   255
 NBsUse=   255 1.00D-06 EigRej= -1.00D+00 NBFU=   255
 Initial guess from the checkpoint file:  "/scratch/Grace/g03/Gau-104067.chk"
 B after Tr=    -0.000044   -0.000062    0.000045
         Rot=    1.000000    0.000040    0.000007    0.000007 Ang=   0.00 deg.
 ExpMin= 4.38D-02 ExpMax= 5.48D+03 ExpMxC= 8.25D+02 IAcc=2 IRadAn=         4 AccDes= 0.00D+00
 Harris functional with IExCor=  402 and IRadAn=       4 diagonalized for initial guess.
 HarFok:  IExCor=  402 AccDes= 0.00D+00 IRadAn=         4 IDoV= 1 UseB2=F ITyADJ=14
 ICtDFT=  3500011 ScaDFX=  1.000000  1.000000  1.000000  1.000000
 FoFCou: FMM=F IPFlag=           0 FMFlag=      100000 FMFlg1=           0
         NFxFlg=           0 DoJE=T BraDBF=F KetDBF=T FulRan=T
         wScrn=  0.000000 ICntrl=       500 IOpCl=  0 I1Cent=   200000004 NGrid=           0
         NMat0=    1 NMatS0=      1 NMatT0=    0 NMatD0=    1 NMtDS0=    0 NMtDT0=    0
 Symmetry not used in FoFCou.
 Requested convergence on RMS density matrix=1.00D-08 within 128 cycles.
 Requested convergence on MAX density matrix=1.00D-06.
 Requested convergence on             energy=1.00D-06.
 No special actions if energy rises.
 EnCoef did     5 forward-backward iterations
 SCF Done:  E(RB3LYP) =  -442.547456263     A.U. after   13 cycles
            NFock= 13  Conv=0.69D-08     -V/T= 2.0096
 DoSCS=F DFT=T ScalE2(SS,OS)=  1.000000  1.000000
 Range of M.O.s used for correlation:     1   255
 NBasis=   255 NAE=    38 NBE=    38 NFC=     0 NFV=     0
 NROrb=    255 NOA=    38 NOB=    38 NVA=   217 NVB=   217

 **** Warning!!: The largest alpha MO coefficient is  0.92978900D+02


 **** Warning!!: The smallest alpha delta epsilon is  0.84450065D-01

 Symmetrizing basis deriv contribution to polar:
 IMax=3 JMax=2 DiffMx= 0.00D+00
 Calling FoFJK, ICntrl=      2147 FMM=F ISym2X=0 I1Cent= 0 IOpClX= 0 NMat=1 NMatS=1 NMatT=0.
 -------------------------------------------------------------------
 Center     Atomic                   Forces (Hartrees/Bohr)
 Number     Number              X              Y              Z
 -------------------------------------------------------------------
      1        6          -0.000193598    0.000215016   -0.000853733
      2        6          -0.001340463   -0.002272876    0.003710227
      3        6           0.000324389    0.000362473   -0.000050624
      4        6          -0.000177638    0.000266555    0.000408022
      5        6          -0.000010879    0.000033328   -0.000043629
      6        6          -0.000142831   -0.000408014   -0.000149508
      7        1          -0.000056137   -0.000188074    0.000053383
      8        1          -0.000019875   -0.000139327   -0.000020592
      9        1          -0.000062162    0.000081113   -0.000011724
     10        1           0.000013318    0.000015529   -0.000036028
     11        1           0.000004709    0.000017925   -0.000020579
     12        1          -0.000015216   -0.000016886   -0.000014626
     13        1           0.000050018   -0.000052729   -0.000026781
     14        1          -0.000064848    0.000063418    0.000088078
     15        8           0.000504169    0.000057284   -0.000807197
     16        6           0.000148605   -0.000007920    0.000008460
     17        1          -0.000003973    0.000022062    0.000025730
     18        1           0.000005499   -0.000004724    0.000002400
     19        6          -0.000106516   -0.000167794    0.000495113
     20        7           0.001213601    0.002230258   -0.002895741
     21        1           0.000076778   -0.000083673    0.000062423
     22        1          -0.000099822   -0.000138822   -0.000066609
     23        1          -0.000047129    0.000115878    0.000143535
 -------------------------------------------------------------------
 Cartesian Forces:  Max     0.003710227 RMS     0.000746928
 IRC-IRC-IRC-IRC-IRC-IRC-IRC-IRC-IRC-IRC-IRC-IRC-IRC-IRC-IRC-IRC-IRC-IRC
 Pt  4 Step number   1 out of a maximum of 100
 Point Number:   4          Path Number:   1
   CHANGE IN THE REACTION COORDINATE =    0.05601
   NET REACTION COORDINATE UP TO THIS POINT =    0.22403
  # OF POINTS ALONG THE PATH =   4
  # OF STEPS =   1

 Calculating another point on the path.
 IRC-IRC-IRC-IRC-IRC-IRC-IRC-IRC-IRC-IRC-IRC-IRC-IRC-IRC-IRC-IRC-IRC-IRC
                          Input orientation:                          
 ---------------------------------------------------------------------
 Center     Atomic      Atomic             Coordinates (Angstroms)
 Number     Number       Type             X           Y           Z
 ---------------------------------------------------------------------
      1          6           0        1.247450    0.873574   -0.709763
      2          6           0        1.020308   -0.676249   -0.000496
      3          6           0        0.226022   -0.254711    1.374373
      4          6           0       -1.086141    0.448855    1.060003
[...]
     21          1           0       -1.114194   -2.124141   -0.785373
     22          1           0       -1.340589   -0.883513   -2.000155
     23          1           0       -0.546514   -1.701165    1.718000
 ---------------------------------------------------------------------
                    Distance matrix (angstroms):
                    1          2          3          4          5
     1  C    0.000000
     2  C    2.380830   0.000000
     3  C    3.420572   1.521315   0.000000
     4  C    3.201005   2.446061   1.554791   0.000000
     5  C    2.618610   2.813883   2.595393   1.568517   0.000000
     6  C    1.548899   3.071385   3.502635   2.657671   1.553051
     7  H    1.091495   2.475798   3.725685   3.799956   3.059048
     8  H    1.095467   3.295947   4.367262   4.069477   3.530605
     9  H    4.255658   3.391990   2.166140   1.095890   2.170450
    10  H    3.521833   3.890628   3.457090   2.173763   1.096521
    11  H    2.939863   2.754932   2.646347   2.188456   1.097774
    12  H    2.172989   3.788202   4.055721   2.950862   2.169516
    13  H    2.168954   3.870540   4.379780   3.573749   2.170881
    14  H    4.110120   2.124376   1.092608   2.223380   2.959044
    15  O    2.862487   1.221375   2.416823   3.466527   3.507996
    16  C    3.234099   2.994509   2.481623   1.536371   2.568135
    17  H    4.257056   3.635068   2.834610   2.169611   3.497565
    18  H    3.464053   3.854053   3.448519   2.184871   2.706344
    19  C    2.487362   2.441604   2.717104   2.508385   3.200573
    20  N    1.476074   1.408814   2.453179   2.673695   2.876161
    21  H    3.373914   2.735641   2.914335   3.121791   4.099550
    22  H    2.615243   3.341126   3.781092   3.367577   3.773819
    23  H    4.162540   2.194122   1.097636   2.191848   3.537717
                    6          7          8          9         10
     6  C    0.000000
     7  H    2.197105   0.000000
     8  H    2.190810   1.765422   0.000000
     9  H    3.502545   4.817097   5.116528   0.000000
    10  H    2.145033   3.991284   4.302138   2.301459   0.000000
    11  H    2.183567   2.984385   3.969130   2.668557   1.751781
    12  H    1.096902   3.060897   2.387895   3.693910   2.416724
    13  H    1.097065   2.416830   2.635137   4.296265   2.459813
    14  H    4.088086   4.183722   5.141651   2.480866   3.710443
    15  O    3.696768   2.449766   3.758411   4.321463   4.571788
    16  C    2.916463   4.138692   3.751118   2.169046   3.055762
    17  H    4.008359   5.132578   4.734432   2.400327   3.875622
    18  H    2.805405   4.460957   3.800722   2.623346   2.874769
    19  C    2.956141   3.389798   2.790603   3.449809   3.998827
    20  N    2.488169   2.074268   2.110263   3.759858   3.898595
    21  H    4.011610   4.135959   3.631719   3.938916   4.918499
    22  H    3.117213   3.623147   2.475499   4.278055   4.455575
    23  H    4.363957   4.562878   4.978429   2.579876   4.313345
                   11         12         13         14         15
    11  H    0.000000
    12  H    3.070467   0.000000
    13  H    2.463404   1.747808   0.000000
    14  H    2.628858   4.782961   4.791853   0.000000
    15  O    3.084286   4.590982   4.237697   2.525357   0.000000
    16  C    3.461619   2.713591   3.982074   3.457468   4.194404
    17  H    4.317380   3.759324   5.065625   3.758975   4.843868
    18  H    3.764155   2.226376   3.763986   4.344718   5.001982
    19  C    3.906641   2.895152   4.025353   3.793784   3.577580
    20  N    3.227482   2.937236   3.401003   3.334085   2.304008
    21  H    4.699853   3.987422   5.074984   3.976775   3.815409
    22  H    4.576430   2.766186   4.093494   4.842391   4.369026
    23  H    3.718724   4.747049   5.325908   1.769709   3.101146
                   16         17         18         19         20
    16  C    0.000000
    17  H    1.096507   0.000000
    18  H    1.095073   1.758996   0.000000
    19  C    1.559789   2.183499   2.210068   0.000000
    20  N    2.545369   3.353412   3.191352   1.472671   0.000000
    21  H    2.188687   2.311134   2.996075   1.094398   2.078592
    22  H    2.210512   2.821575   2.380252   1.093606   2.079302
    23  H    2.610663   2.543247   3.684174   2.802789   2.932586
                   21         22         23
    21  H    0.000000
    22  H    1.751030   0.000000
    23  H    2.601546   3.888930   0.000000
 Symmetry turned off by external request.
 Stoichiometry    C8H13NO
 Framework group  C1[X(C8H13NO)]
 Deg. of freedom    63
 Full point group                 C1      NOp   1
 Rotational constants (GHZ):           1.7630514           1.5286053           1.3614068

 **********************************************************************

            Population analysis using the SCF density.

 **********************************************************************

 Alpha  occ. eigenvalues --  -19.13152 -14.35233 -10.28985 -10.22789 -10.22231
 Alpha  occ. eigenvalues --  -10.21007 -10.19900 -10.19829 -10.19730 -10.19606
 Alpha  occ. eigenvalues --   -1.04318  -0.94063  -0.82209  -0.78592  -0.74848
 Alpha  occ. eigenvalues --   -0.68255  -0.66640  -0.62440  -0.56191  -0.52687
 Alpha  occ. eigenvalues --   -0.51332  -0.49030  -0.47926  -0.45042  -0.43473
 Alpha  occ. eigenvalues --   -0.42510  -0.41864  -0.41419  -0.40381  -0.39702
 Alpha  occ. eigenvalues --   -0.36242  -0.35632  -0.34551  -0.33575  -0.33022
 Alpha  occ. eigenvalues --   -0.32359  -0.25767  -0.23788
 Alpha virt. eigenvalues --   -0.01229  -0.00650   0.00984   0.01373   0.01929
 Alpha virt. eigenvalues --    0.03607   0.03826   0.04090   0.05162   0.05395
 Alpha virt. eigenvalues --    0.07015   0.07682   0.08030   0.08555   0.09147
 Alpha virt. eigenvalues --    0.09768   0.09810   0.11363   0.11847   0.13171
 Alpha virt. eigenvalues --    0.13378   0.13595   0.13926   0.14289   0.14572
 Alpha virt. eigenvalues --    0.15294   0.16143   0.17465   0.17517   0.18105
 Alpha virt. eigenvalues --    0.18554   0.18985   0.19725   0.19965   0.20906
 Alpha virt. eigenvalues --    0.21509   0.22309   0.22469   0.23099   0.23944
 Alpha virt. eigenvalues --    0.24362   0.25092   0.25497   0.26795   0.27809
 Alpha virt. eigenvalues --    0.29017   0.30087   0.30823   0.30963   0.31684
 Alpha virt. eigenvalues --    0.33043   0.33360   0.34728   0.35617   0.37060
 Alpha virt. eigenvalues --    0.37297   0.37839   0.38860   0.39598   0.40346
 Alpha virt. eigenvalues --    0.40860   0.43436   0.45911   0.48591   0.51706
 Alpha virt. eigenvalues --    0.59197   0.62428   0.63252   0.64460   0.65423
 Alpha virt. eigenvalues --    0.66295   0.67352   0.69563   0.71218   0.73086
 Alpha virt. eigenvalues --    0.74760   0.75821   0.77431   0.79281   0.79922
 Alpha virt. eigenvalues --    0.81704   0.83229   0.84546   0.85594   0.89074
 Alpha virt. eigenvalues --    0.90264   0.91723   0.93665   0.95520   0.97155
 Alpha virt. eigenvalues --    0.98880   1.00265   1.01345   1.03987   1.04399
 Alpha virt. eigenvalues --    1.05412   1.07334   1.09427   1.09999   1.11585
 Alpha virt. eigenvalues --    1.13309   1.15599   1.16683   1.17523   1.19397
 Alpha virt. eigenvalues --    1.21983   1.26068   1.29329   1.34528   1.34724
 Alpha virt. eigenvalues --    1.37288   1.39458   1.42072   1.45004   1.48092
 Alpha virt. eigenvalues --    1.49351   1.51787   1.54739   1.55912   1.58878
 Alpha virt. eigenvalues --    1.63510   1.67833   1.70388   1.71773   1.75625
 Alpha virt. eigenvalues --    1.76434   1.77409   1.78845   1.81589   1.81946
 Alpha virt. eigenvalues --    1.83737   1.85632   1.87079   1.88582   1.90309
 Alpha virt. eigenvalues --    1.91415   1.94435   1.96608   1.97602   2.00331
 Alpha virt. eigenvalues --    2.02087   2.05520   2.07261   2.09604   2.10239
 Alpha virt. eigenvalues --    2.13096   2.14450   2.16074   2.19321   2.21395
 Alpha virt. eigenvalues --    2.23659   2.25790   2.26947   2.30648   2.32933
 Alpha virt. eigenvalues --    2.33797   2.34273   2.37448   2.37575   2.40129
 Alpha virt. eigenvalues --    2.41413   2.45021   2.45152   2.46596   2.49529
 Alpha virt. eigenvalues --    2.49987   2.52839   2.54183   2.57485   2.58277
 Alpha virt. eigenvalues --    2.60549   2.61677   2.63704   2.65845   2.66751
 Alpha virt. eigenvalues --    2.68104   2.70819   2.72095   2.74008   2.78198
 Alpha virt. eigenvalues --    2.79480   2.80972   2.83269   2.84508   2.86259
 Alpha virt. eigenvalues --    2.87654   2.88739   2.91176   2.95065   2.96988
 Alpha virt. eigenvalues --    3.01522   3.07912   3.11613   3.26191   3.29423
 Alpha virt. eigenvalues --    3.31469   3.33440   3.35599   3.36469   3.38228
 Alpha virt. eigenvalues --    3.44038   3.49030   3.50340   3.52492   3.54110
 Alpha virt. eigenvalues --    3.56571   3.57962   4.26184   4.40392   4.44284
 Alpha virt. eigenvalues --    4.53437   4.59946   4.64776   4.75651   4.83792
 Alpha virt. eigenvalues --    4.85512   4.93136
          Condensed to atoms (all electrons):
               1          2          3          4          5          6
     1  C    6.055819  -0.567231   0.179926  -0.193180   0.160134  -0.102119
     2  C   -0.567231   6.168709  -0.460122   0.268152  -0.171185   0.249066
     3  C    0.179926  -0.460122   6.351977  -0.215236   0.049457  -0.125307
     4  C   -0.193180   0.268152  -0.215236   6.319694  -0.351125   0.098107
     5  C    0.160134  -0.171185   0.049457  -0.351125   5.946280   0.018372
     6  C   -0.102119   0.249066  -0.125307   0.098107   0.018372   5.691726
     7  H    0.467423   0.004127  -0.005101  -0.003316  -0.013137  -0.054161
     8  H    0.395848   0.004351  -0.005080   0.008824   0.011613  -0.086345
     9  H   -0.006734  -0.004377   0.003613   0.266123   0.015387  -0.004178
    10  H    0.035494  -0.028476   0.033521  -0.069691   0.432897  -0.069749
    11  H    0.010551  -0.004879  -0.022980  -0.047802   0.428340  -0.043448
    12  H   -0.061890   0.007653  -0.009595   0.027589  -0.105778   0.472854
    13  H   -0.049280   0.005472  -0.002212   0.048852  -0.085803   0.408243
    14  H    0.003942  -0.051342   0.413086  -0.036062  -0.010935   0.000800
    15  O   -0.108251   0.680424  -0.247175   0.061768  -0.040585   0.030837
    16  C    0.067624  -0.044272   0.045708  -0.129230   0.125357  -0.069539
    17  H    0.001042   0.011589  -0.003357  -0.033451  -0.007405   0.000851
    18  H    0.014884  -0.008819   0.009844  -0.076955   0.016579  -0.041509
    19  C   -0.263293  -0.066752   0.045638   0.000752  -0.102595   0.054298
    20  N    0.184248  -0.071848  -0.135457  -0.057670  -0.001174  -0.151144
    21  H    0.003356  -0.021475   0.016633  -0.016633  -0.002714  -0.008580
    22  H    0.005238   0.014414  -0.020532   0.045412  -0.010120  -0.000706
    23  H    0.005992  -0.045297   0.395100  -0.056824   0.022581  -0.007086
               7          8          9         10         11         12
     1  C    0.467423   0.395848  -0.006734   0.035494   0.010551  -0.061890
     2  C    0.004127   0.004351  -0.004377  -0.028476  -0.004879   0.007653
     3  C   -0.005101  -0.005080   0.003613   0.033521  -0.022980  -0.009595
     4  C   -0.003316   0.008824   0.266123  -0.069691  -0.047802   0.027589
     5  C   -0.013137   0.011613   0.015387   0.432897   0.428340  -0.105778
     6  C   -0.054161  -0.086345  -0.004178  -0.069749  -0.043448   0.472854
     7  H    0.521604  -0.025388   0.000002  -0.000064   0.001642   0.004658
     8  H   -0.025388   0.584116   0.000006  -0.000124  -0.000040  -0.006989
     9  H    0.000002   0.000006   0.584665  -0.008772   0.000546   0.000004
    10  H   -0.000064  -0.000124  -0.008772   0.575349  -0.028803  -0.005004
    11  H    0.001642  -0.000040   0.000546  -0.028803   0.555949   0.005000
    12  H    0.004658  -0.006989   0.000004  -0.005004   0.005000   0.586763
    13  H   -0.005196   0.002722  -0.000075  -0.002238  -0.004270  -0.031562
    14  H   -0.000008   0.000006  -0.003225   0.000115   0.001758  -0.000003
    15  O    0.002430   0.000613  -0.000643   0.000436   0.000036   0.000138
    16  C    0.001044  -0.010745   0.019651  -0.006542  -0.000915  -0.041397
    17  H    0.000008   0.000002  -0.005249  -0.000054  -0.000113   0.000131
    18  H   -0.000011   0.000095  -0.001245   0.001489   0.000069   0.001343
    19  C   -0.000509   0.019722   0.004077   0.002343   0.005898   0.037934
    20  N   -0.071490  -0.035285   0.008511  -0.002093  -0.016284  -0.019940
    21  H   -0.000161   0.000388  -0.000114   0.000002   0.000009   0.000046
    22  H    0.000281   0.003154  -0.000126   0.000012   0.000002   0.000344
    23  H   -0.000009   0.000010  -0.002856  -0.000135   0.000142   0.000004
              13         14         15         16         17         18
     1  C   -0.049280   0.003942  -0.108251   0.067624   0.001042   0.014884
     2  C    0.005472  -0.051342   0.680424  -0.044272   0.011589  -0.008819
     3  C   -0.002212   0.413086  -0.247175   0.045708  -0.003357   0.009844
     4  C    0.048852  -0.036062   0.061768  -0.129230  -0.033451  -0.076955
     5  C   -0.085803  -0.010935  -0.040585   0.125357  -0.007405   0.016579
     6  C    0.408243   0.000800   0.030837  -0.069539   0.000851  -0.041509
     7  H   -0.005196  -0.000008   0.002430   0.001044   0.000008  -0.000011
     8  H    0.002722   0.000006   0.000613  -0.010745   0.000002   0.000095
     9  H   -0.000075  -0.003225  -0.000643   0.019651  -0.005249  -0.001245
    10  H   -0.002238   0.000115   0.000436  -0.006542  -0.000054   0.001489
    11  H   -0.004270   0.001758   0.000036  -0.000915  -0.000113   0.000069
    12  H   -0.031562  -0.000003   0.000138  -0.041397   0.000131   0.001343
    13  H    0.572097   0.000001   0.000082  -0.007607  -0.000002   0.000147
    14  H    0.000001   0.524962  -0.005167   0.003644   0.000026  -0.000132
    15  O    0.000082  -0.005167   8.138409  -0.013433  -0.000008   0.000133
    16  C   -0.007607   0.003644  -0.013433   5.693168   0.414509   0.440862
    17  H   -0.000002   0.000026  -0.000008   0.414509   0.568351  -0.030936
    18  H    0.000147  -0.000132   0.000133   0.440862  -0.030936   0.571555
    19  C   -0.000658  -0.001827   0.030664   0.006733  -0.061929  -0.035351
    20  N    0.009024   0.012176  -0.094254  -0.026331   0.003966  -0.001688
    21  H    0.000009   0.000053   0.001113  -0.050960  -0.007753   0.004374
    22  H    0.000024   0.000004  -0.000298  -0.099345   0.003298  -0.007451
    23  H    0.000004  -0.023369   0.003104  -0.010408   0.002920   0.000214
              19         20         21         22         23
     1  C   -0.263293   0.184248   0.003356   0.005238   0.005992
     2  C   -0.066752  -0.071848  -0.021475   0.014414  -0.045297
     3  C    0.045638  -0.135457   0.016633  -0.020532   0.395100
     4  C    0.000752  -0.057670  -0.016633   0.045412  -0.056824
     5  C   -0.102595  -0.001174  -0.002714  -0.010120   0.022581
     6  C    0.054298  -0.151144  -0.008580  -0.000706  -0.007086
     7  H   -0.000509  -0.071490  -0.000161   0.000281  -0.000009
     8  H    0.019722  -0.035285   0.000388   0.003154   0.000010
     9  H    0.004077   0.008511  -0.000114  -0.000126  -0.002856
    10  H    0.002343  -0.002093   0.000002   0.000012  -0.000135
    11  H    0.005898  -0.016284   0.000009   0.000002   0.000142
    12  H    0.037934  -0.019940   0.000046   0.000344   0.000004
    13  H   -0.000658   0.009024   0.000009   0.000024   0.000004
    14  H   -0.001827   0.012176   0.000053   0.000004  -0.023369
    15  O    0.030664  -0.094254   0.001113  -0.000298   0.003104
    16  C    0.006733  -0.026331  -0.050960  -0.099345  -0.010408
    17  H   -0.061929   0.003966  -0.007753   0.003298   0.002920
    18  H   -0.035351  -0.001688   0.004374  -0.007451   0.000214
    19  C    5.598114   0.112430   0.429539   0.437317  -0.008873
    20  N    0.112430   7.534863  -0.039148  -0.050928   0.013984
    21  H    0.429539  -0.039148   0.566774  -0.024532  -0.000155
    22  H    0.437317  -0.050928  -0.024532   0.560278   0.000163
    23  H   -0.008873   0.013984  -0.000155   0.000163   0.551184
 Mulliken charges:
               1
     1  C   -0.239543
     2  C    0.132120
     3  C   -0.292349
     4  C    0.141904
     5  C   -0.324439
     6  C   -0.261284
     7  H    0.175331
     8  H    0.138524
     9  H    0.135009
    10  H    0.140088
    11  H    0.159592
    12  H    0.137698
    13  H    0.142226
    14  H    0.171499
    15  O   -0.440372
    16  C   -0.307577
    17  H    0.143563
    18  H    0.142510
    19  C   -0.243669
    20  N   -0.104468
    21  H    0.149930
    22  H    0.144096
    23  H    0.159613
 Sum of Mulliken charges =  -0.00000
 Mulliken charges with hydrogens summed into heavy atoms:
               1
     1  C    0.074312
     2  C    0.132120
     3  C    0.038762
     4  C    0.276913
     5  C   -0.024760
     6  C    0.018640
    15  O   -0.440372
    16  C   -0.021504
    19  C    0.050357
    20  N   -0.104468
 APT charges:
               1
     1  C   -1.031913
     2  C   -0.148488
     3  C   -0.881348
     4  C   -0.301565
     5  C   -0.914744
     6  C   -0.933440
     7  H    0.431891
     8  H    0.501118
     9  H    0.537611
    10  H    0.535665
    11  H    0.349994
    12  H    0.389044
    13  H    0.533415
    14  H    0.490706
    15  O   -0.200428
    16  C   -0.969818
    17  H    0.506118
    18  H    0.421978
    19  C   -0.976135
    20  N    0.274663
    21  H    0.468676
    22  H    0.472083
    23  H    0.444917
 Sum of APT charges =  -0.00000
 APT charges with hydrogens summed into heavy atoms:
               1
     1  C   -0.098904
     2  C   -0.148488
     3  C    0.054275
     4  C    0.236046
     5  C   -0.029086
     6  C   -0.010981
    15  O   -0.200428
    16  C   -0.041722
    19  C   -0.035375
    20  N    0.274663
 Electronic spatial extent (au):  <R**2>=           1181.5207
 Charge=              0.0000 electrons
 Dipole moment (field-independent basis, Debye):
    X=             -4.0447    Y=              1.2677    Z=             -0.4263  Tot=              4.2601
 Quadrupole moment (field-independent basis, Debye-Ang):
   XX=            -69.9728   YY=            -60.7079   ZZ=            -59.6640
   XY=              4.8066   XZ=             -1.8585   YZ=             -1.0535
 Traceless Quadrupole moment (field-independent basis, Debye-Ang):
   XX=             -6.5245   YY=              2.7404   ZZ=              3.7842
   XY=              4.8066   XZ=             -1.8585   YZ=             -1.0535
 Octapole moment (field-independent basis, Debye-Ang**2):
  XXX=             -6.8837  YYY=            -10.2456  ZZZ=              0.8248  XYY=              1.2450
  XXY=              5.9920  XXZ=             -6.2337  XZZ=              2.3263  YZZ=             -1.2870
  YYZ=              2.3189  XYZ=             -0.3200
 Hexadecapole moment (field-independent basis, Debye-Ang**3):
 XXXX=           -650.3926 YYYY=           -504.1705 ZZZZ=           -486.0013 XXXY=             42.4794
 XXXZ=             -8.2388 YYYX=             28.1473 YYYZ=             27.5070 ZZZX=             10.4403
 ZZZY=             29.7772 XXYY=           -186.7534 XXZZ=           -184.1990 YYZZ=           -172.8848
 XXYZ=             13.0927 YYXZ=              0.6193 ZZXY=             11.6436
 N-N= 5.856552050875D+02 E-N=-2.198810804521D+03  KE= 4.384460320900D+02
  Exact polarizability:   0.000   0.000   0.000   0.000   0.000   0.000
 Approx polarizability: 149.812   0.895 126.656   6.963  -4.301 136.638

 This type of calculation cannot be archived.


 THERE ONCE WAS A GIRL NAMED IRENE,
 WHO LIVED ON DISTILLED KEROSENE,
      BUT SHE STARTED ABSORBIN'
      A NEW HYDROCARBON,
 AND SINCE THEN HAS NEVER BENZENE.
 Job cpu time:       1 days 16 hours  7 minutes 42.5 seconds.
 Elapsed time:       0 days  2 hours 32 minutes 27.9 seconds.
 File lengths (MBytes):  RWF=    158 Int=      0 D2E=      0 Chk=     19 Scr=      1
 Normal termination of Gaussian 16 at Sun Apr 14 18:48:05 2019.
