 Entering Gaussian System, Link 0=g16
 Input=CalcFC_LQA_Forward_2.com
 Output=CalcFC_LQA_Forward_2.log
 Initial command:
 /opt/g16/l1.exe "/scratch/Grace/g03/Gau-29257.inp" -scrdir="/scratch/Grace/g03/"
 Entering Link 1 = /opt/g16/l1.exe PID=     29258.
  
 Copyright (c) 1988,1990,1992,1993,1995,1998,2003,2009,2016,
            Gaussian, Inc.  All Rights Reserved.
  
 This is part of the Gaussian(R) 16 program.  It is based on
 the Gaussian(R) 09 system (copyright 2009, Gaussian, Inc.),
 the Gaussian(R) 03 system (copyright 2003, Gaussian, Inc.),
 the Gaussian(R) 98 system (copyright 1998, Gaussian, Inc.),
 the Gaussian(R) 94 system (copyright 1995, Gaussian, Inc.),
 the Gaussian 92(TM) system (copyright 1992, Gaussian, Inc.),
 the Gaussian 90(TM) system (copyright 1990, Gaussian, Inc.),
 the Gaussian 88(TM) system (copyright 1988, Gaussian, Inc.),
 the Gaussian 86(TM) system (copyright 1986, Carnegie Mellon
 University), and the Gaussian 82(TM) system (copyright 1983,
 Carnegie Mellon University). Gaussian is a federally registered
 trademark of Gaussian, Inc.
  
 This software contains proprietary and confidential information,
 including trade secrets, belonging to Gaussian, Inc.
  
 This software is provided under written license and may be
 used, copied, transmitted, or stored only in accord with that
 written license.
  
 The following legend is applicable only to US Government
 contracts under FAR:
  
                    RESTRICTED RIGHTS LEGEND
  
 Use, reproduction and disclosure by the US Government is
 subject to restrictions as set forth in subparagraphs (a)
 and (c) of the Commercial Computer Software - Restricted
 Rights clause in FAR 52.227-19.
  
 Gaussian, Inc.
 340 Quinnipiac St., Bldg. 40, Wallingford CT 06492
  
  
 ---------------------------------------------------------------
 Warning -- This program may not be used in any manner that
 competes with the business of Gaussian, Inc. or will provide
 assistance to any competitor of Gaussian, Inc.  The licensee
 of this program is prohibited from giving any competitor of
 Gaussian, Inc. access to this program.  By using this program,
 the user acknowledges that Gaussian, Inc. is engaged in the
 business of creating and licensing software in the field of
 computational chemistry and represents and warrants to the
 licensee that it is not a competitor of Gaussian, Inc. and that
 it will not use this program in any manner prohibited above.
 ---------------------------------------------------------------
  

 Cite this work as:
 Gaussian 16, Revision A.03,
 M. J. Frisch, G. W. Trucks, H. B. Schlegel, G. E. Scuseria, 
 M. A. Robb, J. R. Cheeseman, G. Scalmani, V. Barone, 
 G. A. Petersson, H. Nakatsuji, X. Li, M. Caricato, A. V. Marenich, 
 J. Bloino, B. G. Janesko, R. Gomperts, B. Mennucci, H. P. Hratchian, 
 J. V. Ortiz, A. F. Izmaylov, J. L. Sonnenberg, D. Williams-Young, 
 F. Ding, F. Lipparini, F. Egidi, J. Goings, B. Peng, A. Petrone, 
 T. Henderson, D. Ranasinghe, V. G. Zakrzewski, J. Gao, N. Rega, 
 G. Zheng, W. Liang, M. Hada, M. Ehara, K. Toyota, R. Fukuda, 
 J. Hasegawa, M. Ishida, T. Nakajima, Y. Honda, O. Kitao, H. Nakai, 
 T. Vreven, K. Throssell, J. A. Montgomery, Jr., J. E. Peralta, 
 F. Ogliaro, M. J. Bearpark, J. J. Heyd, E. N. Brothers, K. N. Kudin, 
 V. N. Staroverov, T. A. Keith, R. Kobayashi, J. Normand, 
 K. Raghavachari, A. P. Rendell, J. C. Burant, S. S. Iyengar, 
 J. Tomasi, M. Cossi, J. M. Millam, M. Klene, C. Adamo, R. Cammi, 
 J. W. Ochterski, R. L. Martin, K. Morokuma, O. Farkas, 
 J. B. Foresman, and D. J. Fox, Gaussian, Inc., Wallingford CT, 2016.
 
 ******************************************
 Gaussian 16:  ES64L-G16RevA.03 25-Dec-2016
                14-Apr-2019 
 ******************************************
 %NProcShared=16
 Will use up to   16 processors via shared memory.
 ----------------------------------------------------------------------
 #B3LYP/6-31+G(d,p) IRC(CalcFC,Forward,StepSize=2,LQA,MaxPoints=500,Max
 Cycles=100) Nosymm
 ----------------------------------------------------------------------
 1/6=100,10=4,18=10,22=1,26=3,38=1,39=2,42=500,44=3,45=2,172=1/1,23;
 2/12=2,15=1,17=6,18=5,29=1,40=1/2;
 3/5=1,6=6,7=111,11=2,25=1,30=1,71=2,74=-5,140=1/1,2,3;
 4//1;
 5/5=2,38=5/2;
 8/6=4,10=90,11=11/1;
 11/6=1,8=1,9=11,15=111,16=1,31=1/1,2,10;
 10/6=1,13=1,31=1/2;
 6/7=2,8=2,9=2,10=2,28=1/1;
 7/10=1,18=20,25=1,30=1/1,2,3,16;
 1/6=100,10=4,18=10,22=1,26=3,39=2,42=500,44=3,45=2/23(2);
 2/15=1,29=1/2;
 99/5=20/99;
 2/15=1,29=1/2;
 3/5=1,6=6,7=111,11=2,25=1,30=1,71=2,74=-5,140=1/1,2,3;
 4/5=5,16=3,69=1/1;
 5/5=2,38=5/2;
 8/6=4,10=90,11=11/1;
 11/6=1,8=1,9=11,15=111,16=1,31=1/1,2,10;
 10/6=1,13=1,31=1/2;
 7/10=1,18=20,25=1,30=1/1,2,3,16;
 1/6=100,18=10,22=1,26=3,39=2,42=500,44=3,45=2/23(-8);
 2/15=1,29=1/2;
 6/7=2,8=2,9=2,10=2,19=2,28=1/1;
 99/5=20,9=1/99;
 ---
 IRC
 ---
 Symbolic Z-matrix:
 Charge =  0 Multiplicity = 1
 6                     1.42386   0.91175  -0.68912 
 6                     1.20521  -0.62156  -0.01092 
 6                     0.3985   -0.21809   1.39019 
 6                    -0.90996   0.48657   1.07238 
 6                    -0.64582   1.87706   0.4628 
 6                     0.20965   1.81321  -0.81568 
 1                     2.16302   1.30613   0.00842 
 1                     1.90881   0.70637  -1.64378 
 1                    -1.41736   0.64166   2.03775 
 1                    -1.59401   2.38511   0.25243 
 1                    -0.12394   2.48314   1.21502 
 1                    -0.40131   1.54243  -1.68124 
 1                     0.59208   2.81909  -1.04148 
 1                     1.11339   0.39515   1.93827 
 8                     2.36213  -1.06055   0.32941 
 6                    -1.78452  -0.43668   0.22138 
 1                    -2.10703  -1.28668   0.83429 
 1                    -2.69255   0.0736   -0.11979 
 6                    -1.0161   -0.99617  -1.01085 
 7                     0.35101  -1.36777  -0.79035 
 1                    -1.53799  -1.87581  -1.40573 
 1                    -1.05511  -0.25085  -1.82316 
 1                     0.269    -1.16961   1.90672 
 
 IRC-IRC-IRC-IRC-IRC-IRC-IRC-IRC-IRC-IRC-IRC-IRC-IRC-IRC-IRC-IRC-IRC-IRC
 ------------------------------------------------------------------------
 INPUT DATA FOR L123
 ------------------------------------------------------------------------
 GENERAL PARAMETERS:
 Rxn path following direction = Forward
 Maximum points per path      = 500
 Step size                    =   0.020 bohr
 Integration scheme           = LQA                                 
 Initial Hessian              = CalcFC
 Hessian evaluation           = All updating
 Hessian updating method      = Bofill                              
 ------------------------------------------------------------------------
 IRC-IRC-IRC-IRC-IRC-IRC-IRC-IRC-IRC-IRC-IRC-IRC-IRC-IRC-IRC-IRC-IRC-IRC
                          Input orientation:                          
 ---------------------------------------------------------------------
 Center     Atomic      Atomic             Coordinates (Angstroms)
 Number     Number       Type             X           Y           Z
 ---------------------------------------------------------------------
      1          6           0        1.423860    0.911745   -0.689116
      2          6           0        1.205207   -0.621558   -0.010924
      3          6           0        0.398497   -0.218094    1.390188
      4          6           0       -0.909958    0.486565    1.072382
      5          6           0       -0.645824    1.877061    0.462799
      6          6           0        0.209653    1.813209   -0.815676
      7          1           0        2.163018    1.306126    0.008424
      8          1           0        1.908809    0.706365   -1.643782
      9          1           0       -1.417355    0.641657    2.037753
     10          1           0       -1.594014    2.385113    0.252426
     11          1           0       -0.123942    2.483142    1.215019
     12          1           0       -0.401314    1.542428   -1.681237
     13          1           0        0.592081    2.819094   -1.041482
     14          1           0        1.113386    0.395151    1.938266
     15          8           0        2.362127   -1.060553    0.329413
     16          6           0       -1.784524   -0.436677    0.221376
     17          1           0       -2.107032   -1.286678    0.834293
     18          1           0       -2.692547    0.073595   -0.119791
     19          6           0       -1.016101   -0.996171   -1.010849
     20          7           0        0.351011   -1.367765   -0.790350
     21          1           0       -1.537988   -1.875807   -1.405729
     22          1           0       -1.055112   -0.250849   -1.823162
     23          1           0        0.269002   -1.169613    1.906722
 ---------------------------------------------------------------------
                    Distance matrix (angstroms):
                    1          2          3          4          5
     1  C    0.000000
     2  C    1.690790   0.000000
     3  C    2.579033   1.666337   0.000000
     4  C    2.954718   2.622101   1.519737   0.000000
     5  C    2.557799   3.145445   2.518001   1.541051   0.000000
     6  C    1.517548   2.750790   3.004611   2.564815   1.539616
     7  H    1.090162   2.152613   2.710360   3.353635   2.902071
     8  H    1.090295   2.219158   3.512925   3.920626   3.512031
     9  H    3.947311   3.559582   2.110884   1.101565   2.145219
    10  H    3.487819   4.116438   3.470056   2.178244   1.096101
    11  H    2.913882   3.592873   2.756865   2.150462   1.097966
    12  H    2.171019   3.170756   3.629433   2.992655   2.183725
    13  H    2.110450   3.643633   3.895511   3.487870   2.163954
    14  H    2.695626   2.200334   1.089736   2.202733   2.732742
    15  O    2.409918   1.283359   2.385545   3.694877   4.206559
    16  C    3.597355   3.004436   2.485856   1.530181   2.590040
    17  H    4.429564   3.482485   2.780030   2.152687   3.504623
    18  H    4.239273   3.960754   3.452488   2.183906   2.789440
    19  C    3.114011   2.464629   2.893349   2.559223   3.250262
    20  N    2.521392   1.376220   2.465511   2.915193   3.618419
    21  H    4.129954   3.323212   3.783535   3.480841   4.286184
    22  H    2.963611   2.920732   3.526992   2.991492   3.149783
    23  H    3.521949   2.203227   1.090397   2.197498   3.493429
                    6          7          8          9         10
     6  C    0.000000
     7  H    2.179887   0.000000
     8  H    2.190432   1.775984   0.000000
     9  H    3.487370   4.168785   4.961981   0.000000
    10  H    2.172816   3.916509   4.322449   2.501647   0.000000
    11  H    2.164213   2.841025   3.932144   2.396012   1.759917
    12  H    1.093526   3.080031   2.457045   3.959118   2.423160
    13  H    1.099565   2.420582   2.561281   4.273260   2.577120
    14  H    3.226735   2.378212   3.682475   2.544664   3.759258
    15  O    3.768671   2.396633   2.687191   4.483350   5.246865
    16  C    3.180284   4.320393   4.292560   2.144025   2.828384
    17  H    4.206985   5.063400   5.122505   2.375383   3.752840
    18  H    3.454458   5.011196   4.888295   2.569787   2.586201
    19  C    3.071348   4.055402   3.443012   3.483886   3.655534
    20  N    3.184214   3.327327   2.730768   3.893978   4.353688
    21  H    4.124470   5.081532   4.313316   4.267288   4.572533
    22  H    2.622021   4.016869   3.119818   3.979253   3.398055
    23  H    4.038836   3.649673   4.337550   2.478239   4.340922
                   11         12         13         14         15
    11  H    0.000000
    12  H    3.057806   0.000000
    13  H    2.391098   1.739539   0.000000
    14  H    2.532543   4.087953   3.876359   0.000000
    15  O    4.418440   4.295908   4.479294   2.503365   0.000000
    16  C    3.502885   3.074095   4.224110   3.469515   4.194712
    17  H    4.276581   4.152253   5.259383   3.797156   4.503268
    18  H    3.766347   3.137727   4.379048   4.338678   5.199789
    19  C    4.225643   2.696640   4.140463   3.894582   3.634951
    20  N    4.367673   3.135107   4.201306   3.336830   2.322248
    21  H    5.279042   3.612792   5.168362   4.834184   4.345832
    22  H    4.191936   1.914011   3.570549   4.389538   4.119068
    23  H    3.738379   4.547300   4.970520   1.778332   2.623160
                   16         17         18         19         20
    16  C    0.000000
    17  H    1.096440   0.000000
    18  H    1.096028   1.761660   0.000000
    19  C    1.556241   2.163117   2.179187   0.000000
    20  N    2.539887   2.947544   3.433717   1.433770   0.000000
    21  H    2.186172   2.385075   2.605151   1.096383   2.050638
    22  H    2.178694   3.039991   2.384938   1.103122   2.071566
    23  H    2.755822   2.609472   3.797775   3.192772   2.705584
                   21         22         23
    21  H    0.000000
    22  H    1.745826   0.000000
    23  H    3.838783   4.063181   0.000000
 Symmetry turned off by external request.
 Stoichiometry    C8H13NO
 Framework group  C1[X(C8H13NO)]
 Deg. of freedom    63
 Full point group                 C1      NOp   1
 Rotational constants (GHZ):           1.8400525           1.4618514           1.2115579
 Standard basis: 6-31+G(d,p) (6D, 7F)
   255 basis functions,   411 primitive gaussians,   255 cartesian basis functions
    38 alpha electrons       38 beta electrons
       nuclear repulsion energy       577.1426959493 Hartrees.
 NAtoms=   23 NActive=   23 NUniq=   23 SFac= 1.00D+00 NAtFMM=   60 NAOKFM=F Big=F
 Integral buffers will be    131072 words long.
 Raffenetti 2 integral format.
 Two-electron integral symmetry is turned off.
 One-electron integrals computed using PRISM.
 NBasis=   255 RedAO= T EigKep=  1.17D-05  NBF=   255
 NBsUse=   255 1.00D-06 EigRej= -1.00D+00 NBFU=   255
 ExpMin= 4.38D-02 ExpMax= 5.48D+03 ExpMxC= 8.25D+02 IAcc=3 IRadAn=         5 AccDes= 0.00D+00
 Harris functional with IExCor=  402 and IRadAn=       5 diagonalized for initial guess.
 HarFok:  IExCor=  402 AccDes= 0.00D+00 IRadAn=         5 IDoV= 1 UseB2=F ITyADJ=14
 ICtDFT=  3500011 ScaDFX=  1.000000  1.000000  1.000000  1.000000
 FoFCou: FMM=F IPFlag=           0 FMFlag=      100000 FMFlg1=           0
         NFxFlg=           0 DoJE=T BraDBF=F KetDBF=T FulRan=T
         wScrn=  0.000000 ICntrl=       500 IOpCl=  0 I1Cent=   200000004 NGrid=           0
         NMat0=    1 NMatS0=      1 NMatT0=    0 NMatD0=    1 NMtDS0=    0 NMtDT0=    0
 Symmetry not used in FoFCou.
 Requested convergence on RMS density matrix=1.00D-08 within 128 cycles.
 Requested convergence on MAX density matrix=1.00D-06.
 Requested convergence on             energy=1.00D-06.
 No special actions if energy rises.
 EnCoef did     1 forward-backward iterations
 EnCoef did     3 forward-backward iterations
 EnCoef did     1 forward-backward iterations
 SCF Done:  E(RB3LYP) =  -442.547255270     A.U. after   20 cycles
            NFock= 20  Conv=0.29D-08     -V/T= 2.0096
 DoSCS=F DFT=T ScalE2(SS,OS)=  1.000000  1.000000
 Range of M.O.s used for correlation:     1   255
 NBasis=   255 NAE=    38 NBE=    38 NFC=     0 NFV=     0
 NROrb=    255 NOA=    38 NOB=    38 NVA=   217 NVB=   217

 **** Warning!!: The largest alpha MO coefficient is  0.95163968D+02


 **** Warning!!: The smallest alpha delta epsilon is  0.84657591D-01

 Symmetrizing basis deriv contribution to polar:
 IMax=3 JMax=2 DiffMx= 0.00D+00
 G2DrvN: will do    24 centers at a time, making    1 passes.
 Calling FoFCou, ICntrl=  3107 FMM=F I1Cent=   0 AccDes= 0.00D+00.
 End of G2Drv F.D. properties file   721 does not exist.
 End of G2Drv F.D. properties file   722 does not exist.
 End of G2Drv F.D. properties file   788 does not exist.
          IDoAtm=11111111111111111111111
          Differentiating once with respect to nuclear coordinates.
 CalDSu exits because no D1Ps are significant.
          There are    72 degrees of freedom in the 1st order CPHF.  IDoFFX=6 NUNeed=     0.
     66 vectors produced by pass  0 Test12= 1.15D-14 1.39D-09 XBig12= 7.69D-01 4.23D-01.
 AX will form    48 AO Fock derivatives at one time.
     66 vectors produced by pass  1 Test12= 1.15D-14 1.39D-09 XBig12= 9.45D-02 6.70D-02.
     66 vectors produced by pass  2 Test12= 1.15D-14 1.39D-09 XBig12= 8.85D-04 5.06D-03.
     66 vectors produced by pass  3 Test12= 1.15D-14 1.39D-09 XBig12= 2.23D-06 1.59D-04.
     66 vectors produced by pass  4 Test12= 1.15D-14 1.39D-09 XBig12= 3.79D-09 6.83D-06.
     57 vectors produced by pass  5 Test12= 1.15D-14 1.39D-09 XBig12= 4.14D-12 1.91D-07.
     11 vectors produced by pass  6 Test12= 1.15D-14 1.39D-09 XBig12= 4.71D-15 7.56D-09.
      2 vectors produced by pass  7 Test12= 1.15D-14 1.39D-09 XBig12= 1.09D-16 1.95D-09.
 InvSVY:  IOpt=1 It=  1 EMax= 1.33D-15
 Solved reduced A of dimension   400 with    72 vectors.
 End of Minotr F.D. properties file   721 does not exist.
 End of Minotr F.D. properties file   722 does not exist.
 End of Minotr F.D. properties file   788 does not exist.

 **********************************************************************

            Population analysis using the SCF density.

 **********************************************************************

 Alpha  occ. eigenvalues --  -19.09545 -14.35269 -10.27946 -10.23422 -10.23234
 Alpha  occ. eigenvalues --  -10.23227 -10.22151 -10.21423 -10.21168 -10.21107
 Alpha  occ. eigenvalues --   -1.00022  -0.90618  -0.84332  -0.79448  -0.75118
 Alpha  occ. eigenvalues --   -0.71392  -0.65951  -0.62397  -0.58872  -0.53577
 Alpha  occ. eigenvalues --   -0.50649  -0.48412  -0.47095  -0.45867  -0.45163
 Alpha  occ. eigenvalues --   -0.43954  -0.42563  -0.42160  -0.39584  -0.38597
 Alpha  occ. eigenvalues --   -0.37270  -0.37163  -0.35272  -0.34223  -0.33924
 Alpha  occ. eigenvalues --   -0.25947  -0.22869  -0.22549
 Alpha virt. eigenvalues --   -0.14083  -0.01439   0.00341   0.00781   0.01905
 Alpha virt. eigenvalues --    0.03204   0.03356   0.04096   0.04872   0.05154
 Alpha virt. eigenvalues --    0.07019   0.07576   0.07888   0.08264   0.09014
 Alpha virt. eigenvalues --    0.09182   0.10194   0.10771   0.11423   0.12352
 Alpha virt. eigenvalues --    0.12757   0.12856   0.13835   0.14136   0.14506
 Alpha virt. eigenvalues --    0.15242   0.16257   0.16978   0.17494   0.17834
 Alpha virt. eigenvalues --    0.17915   0.18462   0.19154   0.19895   0.20604
 Alpha virt. eigenvalues --    0.21319   0.22014   0.22330   0.22926   0.23291
 Alpha virt. eigenvalues --    0.24255   0.24373   0.25502   0.26308   0.26881
 Alpha virt. eigenvalues --    0.27612   0.28214   0.29204   0.30947   0.31382
 Alpha virt. eigenvalues --    0.31880   0.32992   0.33623   0.34857   0.35793
 Alpha virt. eigenvalues --    0.36860   0.37481   0.37968   0.38836   0.39223
 Alpha virt. eigenvalues --    0.40765   0.41492   0.42158   0.46256   0.48269
 Alpha virt. eigenvalues --    0.59462   0.61346   0.62587   0.63660   0.64764
 Alpha virt. eigenvalues --    0.65455   0.66548   0.69529   0.69917   0.70972
 Alpha virt. eigenvalues --    0.72920   0.74422   0.75699   0.76164   0.77865
 Alpha virt. eigenvalues --    0.78189   0.82092   0.83332   0.85451   0.86630
 Alpha virt. eigenvalues --    0.92339   0.93862   0.94746   0.95101   0.97484
 Alpha virt. eigenvalues --    0.98169   0.99475   1.02798   1.04207   1.05980
 Alpha virt. eigenvalues --    1.06098   1.08626   1.09402   1.09473   1.11197
 Alpha virt. eigenvalues --    1.13113   1.14184   1.14400   1.17206   1.20021
 Alpha virt. eigenvalues --    1.21324   1.27178   1.29071   1.31429   1.34502
 Alpha virt. eigenvalues --    1.34972   1.37417   1.40391   1.42427   1.44911
 Alpha virt. eigenvalues --    1.47178   1.50777   1.51530   1.56196   1.59036
 Alpha virt. eigenvalues --    1.61414   1.63459   1.65815   1.69444   1.70787
 Alpha virt. eigenvalues --    1.71819   1.77046   1.77852   1.78452   1.79648
 Alpha virt. eigenvalues --    1.81532   1.84894   1.85985   1.89848   1.91857
 Alpha virt. eigenvalues --    1.93326   1.94017   1.96032   1.98843   1.99796
 Alpha virt. eigenvalues --    2.01307   2.02756   2.06485   2.09785   2.10324
 Alpha virt. eigenvalues --    2.12890   2.14587   2.14823   2.16444   2.19381
 Alpha virt. eigenvalues --    2.20096   2.22113   2.22603   2.25627   2.27910
 Alpha virt. eigenvalues --    2.28758   2.30802   2.34332   2.35803   2.37844
 Alpha virt. eigenvalues --    2.38723   2.41165   2.42909   2.43059   2.44890
 Alpha virt. eigenvalues --    2.47912   2.50907   2.51989   2.54334   2.55033
 Alpha virt. eigenvalues --    2.59413   2.61049   2.64211   2.66308   2.66751
 Alpha virt. eigenvalues --    2.67287   2.68989   2.71226   2.74071   2.75644
 Alpha virt. eigenvalues --    2.76680   2.78077   2.80661   2.81894   2.84068
 Alpha virt. eigenvalues --    2.86568   2.88973   2.91815   2.92441   2.93266
 Alpha virt. eigenvalues --    2.96115   3.02274   3.08151   3.23817   3.28557
 Alpha virt. eigenvalues --    3.29843   3.34032   3.34203   3.35298   3.38581
 Alpha virt. eigenvalues --    3.45303   3.50228   3.51247   3.51299   3.52087
 Alpha virt. eigenvalues --    3.53531   3.55163   4.20903   4.32942   4.42031
 Alpha virt. eigenvalues --    4.46902   4.56431   4.59983   4.73228   4.76741
 Alpha virt. eigenvalues --    4.85293   4.89074
          Condensed to atoms (all electrons):
               1          2          3          4          5          6
     1  C    7.063448  -2.491312   0.276520   0.773708  -0.192065  -0.229543
     2  C   -2.491312  13.136331  -2.162939  -0.781468   0.230901  -0.048763
     3  C    0.276520  -2.162939   7.246897  -0.755032  -0.195027   0.287565
     4  C    0.773708  -0.781468  -0.755032   7.307478   0.292442  -0.576872
     5  C   -0.192065   0.230901  -0.195027   0.292442   5.401918   0.269436
     6  C   -0.229543  -0.048763   0.287565  -0.576872   0.269436   5.767277
     7  H    0.472149  -0.112856  -0.005528   0.009461   0.009243  -0.076066
     8  H    0.370324  -0.075209   0.034146  -0.016230   0.012471  -0.008206
     9  H   -0.031052   0.074884  -0.012856   0.235978  -0.023592   0.026690
    10  H    0.027426  -0.025744   0.026032  -0.069909   0.408778  -0.043510
    11  H    0.010989  -0.042349  -0.002227  -0.044598   0.434115  -0.056011
    12  H   -0.033802  -0.014819  -0.010965  -0.003334  -0.017033   0.381484
    13  H   -0.005136  -0.003959   0.000382   0.021583  -0.036840   0.351616
    14  H   -0.013426  -0.067993   0.441062  -0.069671  -0.009232   0.002905
    15  O   -0.046822   0.049215  -0.043634   0.057070  -0.020236   0.024285
    16  C   -0.370641   0.568418   0.092388  -0.458872  -0.039589   0.128782
    17  H    0.004887  -0.003065  -0.025289  -0.026433   0.008797  -0.004580
    18  H    0.010970  -0.044798   0.046895  -0.091924  -0.018432   0.003621
    19  C    0.365391  -1.211508   0.425300  -0.093198  -0.042472  -0.068920
    20  N    0.162613  -0.393237   0.146829   0.023545  -0.028639  -0.006403
    21  H    0.032284  -0.112397   0.022682   0.038171  -0.001284  -0.004134
    22  H   -0.066281   0.100201  -0.000064  -0.067721   0.017797   0.012610
    23  H    0.017701  -0.027181   0.347185   0.019703   0.012657  -0.003312
               7          8          9         10         11         12
     1  C    0.472149   0.370324  -0.031052   0.027426   0.010989  -0.033802
     2  C   -0.112856  -0.075209   0.074884  -0.025744  -0.042349  -0.014819
     3  C   -0.005528   0.034146  -0.012856   0.026032  -0.002227  -0.010965
     4  C    0.009461  -0.016230   0.235978  -0.069909  -0.044598  -0.003334
     5  C    0.009243   0.012471  -0.023592   0.408778   0.434115  -0.017033
     6  C   -0.076066  -0.008206   0.026690  -0.043510  -0.056011   0.381484
     7  H    0.529629  -0.026005  -0.000137  -0.000035   0.002316   0.004816
     8  H   -0.026005   0.530841   0.000010  -0.000100  -0.000060  -0.005505
     9  H   -0.000137   0.000010   0.588962  -0.002858  -0.005990  -0.000179
    10  H   -0.000035  -0.000100  -0.002858   0.572426  -0.029765  -0.005872
    11  H    0.002316  -0.000060  -0.005990  -0.029765   0.571191   0.005061
    12  H    0.004816  -0.005505  -0.000179  -0.005872   0.005061   0.585875
    13  H   -0.005321   0.000119  -0.000057  -0.001013  -0.007275  -0.029428
    14  H    0.002279   0.000211  -0.001893   0.000061   0.002895   0.000071
    15  O   -0.009980   0.001506  -0.000883   0.000180   0.000010  -0.000540
    16  C    0.001447   0.010211   0.021803  -0.010893   0.014229   0.024582
    17  H   -0.000001  -0.000000  -0.005047   0.000087  -0.000159  -0.000028
    18  H   -0.000000   0.000001  -0.001629   0.002758   0.000158   0.000236
    19  C   -0.000204  -0.006870  -0.002568   0.008827  -0.000590  -0.026462
    20  N    0.015513  -0.003424  -0.004488   0.001063   0.001581   0.004835
    21  H    0.000014  -0.000057  -0.000204  -0.000004   0.000006   0.000423
    22  H   -0.000080   0.001221   0.000140   0.000015  -0.000040   0.003842
    23  H    0.000159  -0.000123  -0.003282  -0.000131   0.000074   0.000009
              13         14         15         16         17         18
     1  C   -0.005136  -0.013426  -0.046822  -0.370641   0.004887   0.010970
     2  C   -0.003959  -0.067993   0.049215   0.568418  -0.003065  -0.044798
     3  C    0.000382   0.441062  -0.043634   0.092388  -0.025289   0.046895
     4  C    0.021583  -0.069671   0.057070  -0.458872  -0.026433  -0.091924
     5  C   -0.036840  -0.009232  -0.020236  -0.039589   0.008797  -0.018432
     6  C    0.351616   0.002905   0.024285   0.128782  -0.004580   0.003621
     7  H   -0.005321   0.002279  -0.009980   0.001447  -0.000001  -0.000000
     8  H    0.000119   0.000211   0.001506   0.010211  -0.000000   0.000001
     9  H   -0.000057  -0.001893  -0.000883   0.021803  -0.005047  -0.001629
    10  H   -0.001013   0.000061   0.000180  -0.010893   0.000087   0.002758
    11  H   -0.007275   0.002895   0.000010   0.014229  -0.000159   0.000158
    12  H   -0.029428   0.000071  -0.000540   0.024582  -0.000028   0.000236
    13  H    0.558371  -0.000186  -0.000104  -0.006647   0.000004  -0.000036
    14  H   -0.000186   0.534956  -0.010189   0.021161  -0.000006  -0.000114
    15  O   -0.000104  -0.010189   8.452510  -0.045779  -0.000410   0.000278
    16  C   -0.006647   0.021161  -0.045779   5.893414   0.431661   0.417949
    17  H    0.000004  -0.000006  -0.000410   0.431661   0.556498  -0.030521
    18  H   -0.000036  -0.000114   0.000278   0.417949  -0.030521   0.568758
    19  C    0.003805   0.003284   0.079616  -0.107170  -0.069973  -0.012164
    20  N    0.000785   0.009191  -0.111036   0.013082   0.008076   0.007178
    21  H   -0.000008   0.000020   0.001057  -0.111467  -0.007684   0.002111
    22  H   -0.000047   0.000019  -0.001675   0.011809   0.004696  -0.006728
    23  H    0.000010  -0.026158  -0.006375  -0.026063   0.001973  -0.000037
              19         20         21         22         23
     1  C    0.365391   0.162613   0.032284  -0.066281   0.017701
     2  C   -1.211508  -0.393237  -0.112397   0.100201  -0.027181
     3  C    0.425300   0.146829   0.022682  -0.000064   0.347185
     4  C   -0.093198   0.023545   0.038171  -0.067721   0.019703
     5  C   -0.042472  -0.028639  -0.001284   0.017797   0.012657
     6  C   -0.068920  -0.006403  -0.004134   0.012610  -0.003312
     7  H   -0.000204   0.015513   0.000014  -0.000080   0.000159
     8  H   -0.006870  -0.003424  -0.000057   0.001221  -0.000123
     9  H   -0.002568  -0.004488  -0.000204   0.000140  -0.003282
    10  H    0.008827   0.001063  -0.000004   0.000015  -0.000131
    11  H   -0.000590   0.001581   0.000006  -0.000040   0.000074
    12  H   -0.026462   0.004835   0.000423   0.003842   0.000009
    13  H    0.003805   0.000785  -0.000008  -0.000047   0.000010
    14  H    0.003284   0.009191   0.000020   0.000019  -0.026158
    15  O    0.079616  -0.111036   0.001057  -0.001675  -0.006375
    16  C   -0.107170   0.013082  -0.111467   0.011809  -0.026063
    17  H   -0.069973   0.008076  -0.007684   0.004696   0.001973
    18  H   -0.012164   0.007178   0.002111  -0.006728  -0.000037
    19  C    5.926137   0.139121   0.507970   0.326780  -0.011858
    20  N    0.139121   7.068864  -0.073243  -0.043760  -0.003375
    21  H    0.507970  -0.073243   0.595640  -0.041578  -0.000050
    22  H    0.326780  -0.043760  -0.041578   0.607274  -0.000073
    23  H   -0.011858  -0.003375  -0.000050  -0.000073   0.521796
 Mulliken charges:
               1
     1  C   -0.108332
     2  C   -0.540352
     3  C   -0.180320
     4  C    0.276125
     5  C   -0.474113
     6  C   -0.129953
     7  H    0.189188
     8  H    0.180727
     9  H    0.148248
    10  H    0.142182
    11  H    0.146440
    12  H    0.136733
    13  H    0.159382
    14  H    0.180755
    15  O   -0.368063
    16  C   -0.473815
    17  H    0.156517
    18  H    0.145469
    19  C   -0.132273
    20  N    0.065330
    21  H    0.151731
    22  H    0.141643
    23  H    0.186751
 Sum of Mulliken charges =  -0.00000
 Mulliken charges with hydrogens summed into heavy atoms:
               1
     1  C    0.261583
     2  C   -0.540352
     3  C    0.187186
     4  C    0.424373
     5  C   -0.185491
     6  C    0.166162
    15  O   -0.368063
    16  C   -0.171829
    19  C    0.161101
    20  N    0.065330
 APT charges:
               1
     1  C   -0.725431
     2  C   -0.755479
     3  C   -0.682158
     4  C   -0.074885
     5  C   -1.157747
     6  C   -0.785690
     7  H    0.471046
     8  H    0.509490
     9  H    0.519474
    10  H    0.492878
    11  H    0.455302
    12  H    0.331851
    13  H    0.591721
    14  H    0.470453
    15  O   -0.275916
    16  C   -1.167619
    17  H    0.465607
    18  H    0.472734
    19  C   -0.606745
    20  N    0.068878
    21  H    0.571603
    22  H    0.333937
    23  H    0.476694
 Sum of APT charges =  -0.00000
 APT charges with hydrogens summed into heavy atoms:
               1
     1  C    0.255105
     2  C   -0.755479
     3  C    0.264989
     4  C    0.444589
     5  C   -0.209567
     6  C    0.137883
    15  O   -0.275916
    16  C   -0.229277
    19  C    0.298795
    20  N    0.068878
 Electronic spatial extent (au):  <R**2>=           1233.6402
 Charge=             -0.0000 electrons
 Dipole moment (field-independent basis, Debye):
    X=             -4.9039    Y=              4.3591    Z=              0.3245  Tot=              6.5693
 Quadrupole moment (field-independent basis, Debye-Ang):
   XX=            -71.0716   YY=            -65.2297   ZZ=            -58.5927
   XY=              9.3021   XZ=             -1.2865   YZ=             -1.9314
 Traceless Quadrupole moment (field-independent basis, Debye-Ang):
   XX=             -6.1069   YY=             -0.2650   ZZ=              6.3720
   XY=              9.3021   XZ=             -1.2865   YZ=             -1.9314
 Octapole moment (field-independent basis, Debye-Ang**2):
  XXX=            -53.0984  YYY=             -3.8217  ZZZ=              0.0396  XYY=            -16.8817
  XXY=             12.0270  XXZ=             -7.6556  XZZ=             -7.4180  YZZ=             -3.7090
  YYZ=              2.7053  XYZ=             -0.5004
 Hexadecapole moment (field-independent basis, Debye-Ang**3):
 XXXX=           -768.5211 YYYY=           -618.8303 ZZZZ=           -365.4340 XXXY=             68.2367
 XXXZ=             -2.1348 YYYX=             51.0138 YYYZ=            -19.7762 ZZZX=             11.5170
 ZZZY=            -12.3076 XXYY=           -229.6211 XXZZ=           -172.9062 YYZZ=           -164.6158
 XXYZ=              2.1830 YYXZ=              6.8983 ZZXY=             14.2387
 N-N= 5.771426959493D+02 E-N=-2.181407626529D+03  KE= 4.383459572607D+02
  Exact polarizability:   0.000   0.000   0.000   0.000   0.000   0.000
 Approx polarizability: 240.231  17.554 162.273  54.438  14.659 184.820
 Calling FoFJK, ICntrl=    100147 FMM=F ISym2X=0 I1Cent= 0 IOpClX= 0 NMat=1 NMatS=1 NMatT=0.
 -------------------------------------------------------------------
 Center     Atomic                   Forces (Hartrees/Bohr)
 Number     Number              X              Y              Z
 -------------------------------------------------------------------
      1        6           0.000016909   -0.000003310   -0.000027229
      2        6          -0.000033774    0.000032180   -0.000004358
      3        6          -0.000001358    0.000001498    0.000018690
      4        6           0.000037945    0.000008023    0.000028781
      5        6           0.000026117    0.000001170   -0.000014228
      6        6          -0.000025154    0.000010879    0.000017565
      7        1           0.000005684   -0.000002291   -0.000000694
      8        1          -0.000003145   -0.000001489   -0.000001110
      9        1           0.000000706    0.000000697   -0.000000895
     10        1          -0.000002280   -0.000001398    0.000001667
     11        1          -0.000003335   -0.000001332    0.000004703
     12        1           0.000019916   -0.000002551    0.000011057
     13        1           0.000000374    0.000000077    0.000002179
     14        1          -0.000010256    0.000002987    0.000001577
     15        8           0.000000571   -0.000001519   -0.000001381
     16        6           0.000005737   -0.000021124   -0.000040107
     17        1           0.000003590   -0.000003004   -0.000003256
     18        1          -0.000000177    0.000003485    0.000000668
     19        6          -0.000014504   -0.000032588    0.000009367
     20        7           0.000000005    0.000014067    0.000009843
     21        1          -0.000002145    0.000002461   -0.000000319
     22        1          -0.000015661   -0.000004559   -0.000017520
     23        1          -0.000005764   -0.000002358    0.000005000
 -------------------------------------------------------------------
 Cartesian Forces:  Max     0.000040107 RMS     0.000013752
 IRC-IRC-IRC-IRC-IRC-IRC-IRC-IRC-IRC-IRC-IRC-IRC-IRC-IRC-IRC-IRC-IRC-IRC
          ******** Start new reaction path calculation ********
 Supplied step size of   0.0200 bohr.
    Integration on MW PES will use step size of   0.0560 sqrt(amu)*bohr.
 Point Number:   0          Path Number:   1
 Calculating another point on the path.
 IRC-IRC-IRC-IRC-IRC-IRC-IRC-IRC-IRC-IRC-IRC-IRC-IRC-IRC-IRC-IRC-IRC-IRC
                          Input orientation:                          
 ---------------------------------------------------------------------
 Center     Atomic      Atomic             Coordinates (Angstroms)
 Number     Number       Type             X           Y           Z
 ---------------------------------------------------------------------
      1          6           0        1.249140    0.871888   -0.703470
      2          6           0        1.032237   -0.658209   -0.031346
      3          6           0        0.222891   -0.258376    1.375077
      4          6           0       -1.084742    0.446581    1.056518
      5          6           0       -0.820792    1.837404    0.447583
      6          6           0        0.034829    1.774197   -0.830778
      7          1           0        1.988763    1.269299   -0.007878
      8          1           0        1.734133    0.669269   -1.658932
      9          1           0       -1.591340    0.600628    2.022644
     10          1           0       -1.769214    2.345249    0.237756
     11          1           0       -0.299006    2.443227    1.200091
     12          1           0       -0.576101    1.503149   -1.696258
     13          1           0        0.416269    2.780390   -1.056297
     14          1           0        0.939541    0.354303    1.921227
     15          8           0        2.186505   -1.100139    0.314977
     16          6           0       -1.959781   -0.476298    0.206091
     17          1           0       -2.281989   -1.326636    0.818630
     18          1           0       -2.867666    0.034052   -0.135147
     19          6           0       -1.190930   -1.035444   -1.026895
     20          7           0        0.174517   -1.409715   -0.801931
     21          1           0       -1.714059   -1.914191   -1.421786
     22          1           0       -1.228844   -0.288342   -1.837393
     23          1           0        0.094545   -1.211105    1.889296
 ---------------------------------------------------------------------
                    Distance matrix (angstroms):
                    1          2          3          4          5
     1  C    0.000000
     2  C    1.685228   0.000000
     3  C    2.578962   1.671207   0.000000
     4  C    2.953887   2.624044   1.519324   0.000000
     5  C    2.557687   3.145023   2.518295   1.541058   0.000000
     6  C    1.518197   2.747820   3.005415   2.564740   1.539574
     7  H    1.090333   2.151925   2.713791   3.355031   2.902376
     8  H    1.090495   2.214473   3.514198   3.920372   3.511351
     9  H    3.946341   3.561839   2.109185   1.101713   2.145735
    10  H    3.488146   4.115982   3.469992   2.178030   1.096102
    11  H    2.913660   3.592709   2.757111   2.150486   1.097976
    12  H    2.171549   3.167041   3.629663   2.992127   2.183495
    13  H    2.111999   3.640591   3.896547   3.487648   2.163608
    14  H    2.693099   2.201435   1.089607   2.203170   2.733127
    15  O    2.409310   1.283579   2.384986   3.693681   4.206016
    16  C    3.597510   3.006931   2.485573   1.529910   2.590141
    17  H    4.429353   3.486164   2.779430   2.152739   3.504842
    18  H    4.239464   3.962227   3.452222   2.183819   2.789506
    19  C    3.113914   2.464933   2.893475   2.558962   3.250283
    20  N    2.523930   1.376316   2.463186   2.912971   3.618799
    21  H    4.130226   3.324598   3.783642   3.480126   4.285666
    22  H    2.961810   2.917377   3.525393   2.989247   3.147445
    23  H    3.520566   2.207674   1.090223   2.198217   3.494250
                    6          7          8          9         10
     6  C    0.000000
     7  H    2.179436   0.000000
     8  H    2.189598   1.775064   0.000000
     9  H    3.487651   4.169805   4.961601   0.000000
    10  H    2.173117   3.916682   4.322011   2.502233   0.000000
    11  H    2.164135   2.840983   3.931234   2.396225   1.759886
    12  H    1.093507   3.079584   2.456406   3.959228   2.423440
    13  H    1.099445   2.419776   2.560618   4.273375   2.576870
    14  H    3.226164   2.378977   3.680777   2.544861   3.759693
    15  O    3.768855   2.399495   2.689193   4.481165   5.246368
    16  C    3.180927   4.322486   4.293674   2.143685   2.828152
    17  H    4.207535   5.065699   5.123591   2.375077   3.752744
    18  H    3.454922   5.012677   4.888965   2.570230   2.585979
    19  C    3.071650   4.057177   3.444055   3.483784   3.655522
    20  N    3.187105   3.331535   2.736609   3.890752   4.354170
    21  H    4.124574   5.083762   4.315151   4.266553   4.571647
    22  H    2.619963   4.015764   3.118990   3.977632   3.396180
    23  H    4.039109   3.652360   4.337508   2.478380   4.341525
                   11         12         13         14         15
    11  H    0.000000
    12  H    3.057674   0.000000
    13  H    2.390938   1.739452   0.000000
    14  H    2.533306   4.086957   3.876256   0.000000
    15  O    4.417764   4.295831   4.480249   2.500072   0.000000
    16  C    3.502833   3.074363   4.224364   3.469533   4.194367
    17  H    4.276634   4.152396   5.259620   3.797305   4.502488
    18  H    3.766298   3.137926   4.378940   4.338901   5.199389
    19  C    4.225654   2.696389   4.140597   3.893807   3.634814
    20  N    4.367778   3.138156   4.204774   3.333559   2.321942
    21  H    5.278609   3.612270   5.168266   4.833570   4.346657
    22  H    4.189556   1.911918   3.568420   4.386583   4.117805
    23  H    3.739523   4.546772   4.971122   1.779197   2.620513
                   16         17         18         19         20
    16  C    0.000000
    17  H    1.096401   0.000000
    18  H    1.095973   1.761868   0.000000
    19  C    1.556930   2.163600   2.179560   0.000000
    20  N    2.538228   2.944069   3.432775   1.433573   0.000000
    21  H    2.185841   2.384791   2.604208   1.096266   2.050716
    22  H    2.178399   3.040004   2.384809   1.102953   2.073422
    23  H    2.755608   2.609135   3.797826   3.191782   2.699731
                   21         22         23
    21  H    0.000000
    22  H    1.746868   0.000000
    23  H    3.837791   4.060918   0.000000
 Symmetry turned off by external request.
 Stoichiometry    C8H13NO
 Framework group  C1[X(C8H13NO)]
 Deg. of freedom    63
 Full point group                 C1      NOp   1
 Rotational constants (GHZ):           1.8399340           1.4624102           1.2113572
 Standard basis: 6-31+G(d,p) (6D, 7F)
   255 basis functions,   411 primitive gaussians,   255 cartesian basis functions
    38 alpha electrons       38 beta electrons
       nuclear repulsion energy       577.1542863025 Hartrees.
 NAtoms=   23 NActive=   23 NUniq=   23 SFac= 1.00D+00 NAtFMM=   60 NAOKFM=F Big=F
 Integral buffers will be    131072 words long.
 Raffenetti 2 integral format.
 Two-electron integral symmetry is turned off.
 One-electron integrals computed using PRISM.
 NBasis=   255 RedAO= T EigKep=  1.17D-05  NBF=   255
 NBsUse=   255 1.00D-06 EigRej= -1.00D+00 NBFU=   255
 Initial guess from the checkpoint file:  "/scratch/Grace/g03/Gau-29258.chk"
 B after Tr=    -0.330704   -0.074765   -0.028919
         Rot=    1.000000   -0.000039   -0.000008   -0.000007 Ang=  -0.00 deg.
 ExpMin= 4.38D-02 ExpMax= 5.48D+03 ExpMxC= 8.25D+02 IAcc=2 IRadAn=         4 AccDes= 0.00D+00
 Harris functional with IExCor=  402 and IRadAn=       4 diagonalized for initial guess.
 HarFok:  IExCor=  402 AccDes= 0.00D+00 IRadAn=         4 IDoV= 1 UseB2=F ITyADJ=14
 ICtDFT=  3500011 ScaDFX=  1.000000  1.000000  1.000000  1.000000
 FoFCou: FMM=F IPFlag=           0 FMFlag=      100000 FMFlg1=           0
         NFxFlg=           0 DoJE=T BraDBF=F KetDBF=T FulRan=T
         wScrn=  0.000000 ICntrl=       500 IOpCl=  0 I1Cent=   200000004 NGrid=           0
         NMat0=    1 NMatS0=      1 NMatT0=    0 NMatD0=    1 NMtDS0=    0 NMtDT0=    0
 Symmetry not used in FoFCou.
 Requested convergence on RMS density matrix=1.00D-08 within 128 cycles.
 Requested convergence on MAX density matrix=1.00D-06.
 Requested convergence on             energy=1.00D-06.
 No special actions if energy rises.
 EnCoef did     5 forward-backward iterations
 SCF Done:  E(RB3LYP) =  -442.547267701     A.U. after   13 cycles
            NFock= 13  Conv=0.47D-08     -V/T= 2.0096
 DoSCS=F DFT=T ScalE2(SS,OS)=  1.000000  1.000000
 Range of M.O.s used for correlation:     1   255
 NBasis=   255 NAE=    38 NBE=    38 NFC=     0 NFV=     0
 NROrb=    255 NOA=    38 NOB=    38 NVA=   217 NVB=   217

 **** Warning!!: The largest alpha MO coefficient is  0.95555482D+02


 **** Warning!!: The smallest alpha delta epsilon is  0.84776296D-01

 Symmetrizing basis deriv contribution to polar:
 IMax=3 JMax=2 DiffMx= 0.00D+00
 Calling FoFJK, ICntrl=      2147 FMM=F ISym2X=0 I1Cent= 0 IOpClX= 0 NMat=1 NMatS=1 NMatT=0.
 -------------------------------------------------------------------
 Center     Atomic                   Forces (Hartrees/Bohr)
 Number     Number              X              Y              Z
 -------------------------------------------------------------------
      1        6           0.000077993   -0.000048285    0.000120090
      2        6           0.000363971    0.000535214   -0.000934195
      3        6          -0.000115472   -0.000139776    0.000054072
      4        6           0.000081582   -0.000063521   -0.000077524
      5        6           0.000036334   -0.000011104   -0.000002519
      6        6           0.000008174    0.000116484    0.000049539
      7        1           0.000013520    0.000034641   -0.000017028
      8        1           0.000002198    0.000039593    0.000001126
      9        1           0.000017077   -0.000022446    0.000001077
     10        1          -0.000004848   -0.000005750    0.000010978
     11        1          -0.000004101   -0.000006274    0.000010069
     12        1           0.000023890    0.000002111    0.000015569
     13        1          -0.000010620    0.000013174    0.000009516
     14        1           0.000008435   -0.000017865   -0.000029671
     15        8          -0.000165814    0.000014854    0.000196210
     16        6          -0.000037328   -0.000032445   -0.000039457
     17        1           0.000004599   -0.000008043   -0.000008204
     18        1          -0.000001335    0.000004145   -0.000001117
     19        6           0.000027806    0.000033431   -0.000139178
     20        7          -0.000311640   -0.000452225    0.000817901
     21        1          -0.000016997    0.000019331   -0.000010738
     22        1           0.000001154    0.000023955   -0.000000631
     23        1           0.000001421   -0.000029200   -0.000025886
 -------------------------------------------------------------------
 Cartesian Forces:  Max     0.000934195 RMS     0.000188683
 IRC-IRC-IRC-IRC-IRC-IRC-IRC-IRC-IRC-IRC-IRC-IRC-IRC-IRC-IRC-IRC-IRC-IRC
 Pt  1 Step number   1 out of a maximum of 100
 Point Number:   1          Path Number:   1
   CHANGE IN THE REACTION COORDINATE =    0.05602
   NET REACTION COORDINATE UP TO THIS POINT =    0.05602
  # OF POINTS ALONG THE PATH =   1
  # OF STEPS =   1

 Calculating another point on the path.
 IRC-IRC-IRC-IRC-IRC-IRC-IRC-IRC-IRC-IRC-IRC-IRC-IRC-IRC-IRC-IRC-IRC-IRC
                          Input orientation:                          
 ---------------------------------------------------------------------
 Center     Atomic      Atomic             Coordinates (Angstroms)
 Number     Number       Type             X           Y           Z
 ---------------------------------------------------------------------
      1          6           0        1.249493    0.871638   -0.702664
      2          6           0        1.034282   -0.655249   -0.036479
      3          6           0        0.222271   -0.259118    1.375316
      4          6           0       -1.084453    0.446172    1.055952
      5          6           0       -0.820684    1.837324    0.447657
      6          6           0        0.035044    1.774801   -0.830559
      7          1           0        1.989662    1.271949   -0.009047
      8          1           0        1.734400    0.671768   -1.658973
      9          1           0       -1.590314    0.599174    2.022795
     10          1           0       -1.769371    2.344915    0.238391
     11          1           0       -0.299063    2.442897    1.200499
     12          1           0       -0.575773    1.503407   -1.695950
     13          1           0        0.415484    2.781305   -1.055791
     14          1           0        0.940674    0.353028    1.919491
     15          8           0        2.185866   -1.100100    0.315810
     16          6           0       -1.959994   -0.476361    0.206022
     17          1           0       -2.281875   -1.327036    0.818195
     18          1           0       -2.867743    0.034114   -0.135219
     19          6           0       -1.190771   -1.035190   -1.027696
     20          7           0        0.173018   -1.411962   -0.798162
     21          1           0       -1.715060   -1.913190   -1.422397
     22          1           0       -1.227850   -0.286535   -1.836594
     23          1           0        0.095018   -1.213030    1.887252
 ---------------------------------------------------------------------
                    Distance matrix (angstroms):
                    1          2          3          4          5
     1  C    0.000000
     2  C    1.679732   0.000000
     3  C    2.579107   1.676140   0.000000
     4  C    2.953144   2.625942   1.518867   0.000000
     5  C    2.557620   3.144552   2.518606   1.541072   0.000000
     6  C    1.518864   2.744846   3.006287   2.564654   1.539485
     7  H    1.090506   2.151184   2.717406   3.356533   2.902804
     8  H    1.090692   2.209893   3.515678   3.920159   3.510679
     9  H    3.945487   3.564083   2.107453   1.101858   2.146254
    10  H    3.488505   4.115459   3.469903   2.177784   1.096106
    11  H    2.913574   3.592552   2.757396   2.150499   1.097988
    12  H    2.171945   3.163213   3.629882   2.991566   2.183240
    13  H    2.113551   3.637555   3.897664   3.487423   2.163231
    14  H    2.690729   2.202545   1.089473   2.203524   2.733461
    15  O    2.408699   1.283801   2.384430   3.692391   4.205375
    16  C    3.597724   3.009402   2.485302   1.529712   2.590281
    17  H    4.429192   3.489795   2.778774   2.152815   3.505076
    18  H    4.239702   3.963681   3.451940   2.183758   2.789581
    19  C    3.113924   2.465305   2.893690   2.558773   3.250380
    20  N    2.526410   1.376427   2.460789   2.910607   3.619029
    21  H    4.130600   3.325968   3.783702   3.479434   4.285250
    22  H    2.960471   2.914379   3.524198   2.987347   3.145531
    23  H    3.519420   2.212256   1.090056   2.198900   3.495083
                    6          7          8          9         10
     6  C    0.000000
     7  H    2.179053   0.000000
     8  H    2.188781   1.774157   0.000000
     9  H    3.487910   4.170999   4.961291   0.000000
    10  H    2.173384   3.916990   4.321553   2.502753   0.000000
    11  H    2.164065   2.841194   3.930452   2.396417   1.759846
    12  H    1.093460   3.079070   2.455583   3.959293   2.423734
    13  H    1.099325   2.419063   2.559984   4.273478   2.576613
    14  H    3.225582   2.379926   3.679267   2.545027   3.760061
    15  O    3.768985   2.402216   2.691302   4.478935   5.245762
    16  C    3.181573   4.324653   4.294759   2.143386   2.827894
    17  H    4.208075   5.068045   5.124651   2.374784   3.752607
    18  H    3.455382   5.014234   4.889596   2.570630   2.585693
    19  C    3.072057   4.059025   3.445118   3.483715   3.655525
    20  N    3.189913   3.335607   2.742415   3.887391   4.354474
    21  H    4.124853   5.086023   4.317030   4.265780   4.570845
    22  H    2.618418   4.015119   3.118464   3.976273   3.394604
    23  H    4.039459   3.655236   4.337713   2.478467   4.342081
                   11         12         13         14         15
    11  H    0.000000
    12  H    3.057553   0.000000
    13  H    2.390803   1.739373   0.000000
    14  H    2.534058   4.085878   3.876165   0.000000
    15  O    4.417054   4.295588   4.481165   2.496773   0.000000
    16  C    3.502820   3.074581   4.224625   3.469544   4.193955
    17  H    4.276692   4.152484   5.259851   3.797406   4.501622
    18  H    3.766231   3.138126   4.378823   4.339076   5.198926
    19  C    4.225764   2.696157   4.140830   3.893086   3.634680
    20  N    4.367774   3.141034   4.208165   3.330184   2.321583
    21  H    5.278269   3.611917   5.168356   4.832896   4.347378
    22  H    4.187646   1.910203   3.566769   4.384029   4.116817
    23  H    3.740686   4.546244   4.971812   1.780088   2.617982
                   16         17         18         19         20
    16  C    0.000000
    17  H    1.096363   0.000000
    18  H    1.095919   1.762092   0.000000
    19  C    1.557579   2.164023   2.179945   0.000000
    20  N    2.536430   2.940464   3.431743   1.433375   0.000000
    21  H    2.185456   2.384347   2.603363   1.096153   2.050789
    22  H    2.178153   3.039987   2.384690   1.102804   2.075418
    23  H    2.755411   2.608735   3.797856   3.190893   2.693901
                   21         22         23
    21  H    0.000000
    22  H    1.747839   0.000000
    23  H    3.836715   4.058990   0.000000
 Symmetry turned off by external request.
 Stoichiometry    C8H13NO
 Framework group  C1[X(C8H13NO)]
 Deg. of freedom    63
 Full point group                 C1      NOp   1
 Rotational constants (GHZ):           1.8397449           1.4629936           1.2111736
 Standard basis: 6-31+G(d,p) (6D, 7F)
   255 basis functions,   411 primitive gaussians,   255 cartesian basis functions
    38 alpha electrons       38 beta electrons
       nuclear repulsion energy       577.1647832937 Hartrees.
 NAtoms=   23 NActive=   23 NUniq=   23 SFac= 1.00D+00 NAtFMM=   60 NAOKFM=F Big=F
 Integral buffers will be    131072 words long.
 Raffenetti 2 integral format.
 Two-electron integral symmetry is turned off.
 One-electron integrals computed using PRISM.
 NBasis=   255 RedAO= T EigKep=  1.17D-05  NBF=   255
 NBsUse=   255 1.00D-06 EigRej= -1.00D+00 NBFU=   255
 Initial guess from the checkpoint file:  "/scratch/Grace/g03/Gau-29258.chk"
 B after Tr=     0.000040    0.000045   -0.000049
         Rot=    1.000000   -0.000037   -0.000011   -0.000008 Ang=  -0.00 deg.
 ExpMin= 4.38D-02 ExpMax= 5.48D+03 ExpMxC= 8.25D+02 IAcc=2 IRadAn=         4 AccDes= 0.00D+00
 Harris functional with IExCor=  402 and IRadAn=       4 diagonalized for initial guess.
 HarFok:  IExCor=  402 AccDes= 0.00D+00 IRadAn=         4 IDoV= 1 UseB2=F ITyADJ=14
 ICtDFT=  3500011 ScaDFX=  1.000000  1.000000  1.000000  1.000000
 FoFCou: FMM=F IPFlag=           0 FMFlag=      100000 FMFlg1=           0
         NFxFlg=           0 DoJE=T BraDBF=F KetDBF=T FulRan=T
         wScrn=  0.000000 ICntrl=       500 IOpCl=  0 I1Cent=   200000004 NGrid=           0
         NMat0=    1 NMatS0=      1 NMatT0=    0 NMatD0=    1 NMtDS0=    0 NMtDT0=    0
 Symmetry not used in FoFCou.
 Requested convergence on RMS density matrix=1.00D-08 within 128 cycles.
 Requested convergence on MAX density matrix=1.00D-06.
 Requested convergence on             energy=1.00D-06.
 No special actions if energy rises.
 EnCoef did     5 forward-backward iterations
 SCF Done:  E(RB3LYP) =  -442.547305042     A.U. after   13 cycles
            NFock= 13  Conv=0.43D-08     -V/T= 2.0096
 DoSCS=F DFT=T ScalE2(SS,OS)=  1.000000  1.000000
 Range of M.O.s used for correlation:     1   255
 NBasis=   255 NAE=    38 NBE=    38 NFC=     0 NFV=     0
 NROrb=    255 NOA=    38 NOB=    38 NVA=   217 NVB=   217

 **** Warning!!: The largest alpha MO coefficient is  0.95843910D+02


 **** Warning!!: The smallest alpha delta epsilon is  0.84920765D-01

 Symmetrizing basis deriv contribution to polar:
 IMax=3 JMax=2 DiffMx= 0.00D+00
 Calling FoFJK, ICntrl=      2147 FMM=F ISym2X=0 I1Cent= 0 IOpClX= 0 NMat=1 NMatS=1 NMatT=0.
 -------------------------------------------------------------------
 Center     Atomic                   Forces (Hartrees/Bohr)
 Number     Number              X              Y              Z
 -------------------------------------------------------------------
      1        6           0.000131574   -0.000084099    0.000261766
      2        6           0.000791771    0.000998467   -0.001839907
      3        6          -0.000234973   -0.000294196    0.000082899
      4        6           0.000090103   -0.000148048   -0.000210471
      5        6           0.000032318   -0.000028714    0.000030195
      6        6           0.000073351    0.000213653    0.000067588
      7        1           0.000017991    0.000071757   -0.000035138
      8        1           0.000009369    0.000081211    0.000001383
      9        1           0.000031023   -0.000046020    0.000003363
     10        1          -0.000004363   -0.000008849    0.000018520
     11        1          -0.000001092   -0.000010098    0.000011594
     12        1           0.000008003    0.000009310    0.000009843
     13        1          -0.000021215    0.000026645    0.000014945
     14        1           0.000036769   -0.000042654   -0.000061161
     15        8          -0.000340695    0.000045374    0.000389349
     16        6          -0.000084331   -0.000026197   -0.000006901
     17        1           0.000001934   -0.000010127   -0.000010393
     18        1          -0.000002505    0.000001336   -0.000004097
     19        6           0.000076473    0.000118014   -0.000298629
     20        7          -0.000626602   -0.000893943    0.001624129
     21        1          -0.000028084    0.000029055   -0.000018027
     22        1           0.000030324    0.000052736    0.000028792
     23        1           0.000012855   -0.000054613   -0.000059642
 -------------------------------------------------------------------
 Cartesian Forces:  Max     0.001839907 RMS     0.000373750
 IRC-IRC-IRC-IRC-IRC-IRC-IRC-IRC-IRC-IRC-IRC-IRC-IRC-IRC-IRC-IRC-IRC-IRC
 Pt  2 Step number   1 out of a maximum of 100
 Point Number:   2          Path Number:   1
   CHANGE IN THE REACTION COORDINATE =    0.05599
   NET REACTION COORDINATE UP TO THIS POINT =    0.11201
  # OF POINTS ALONG THE PATH =   2
  # OF STEPS =   1

 Calculating another point on the path.
 IRC-IRC-IRC-IRC-IRC-IRC-IRC-IRC-IRC-IRC-IRC-IRC-IRC-IRC-IRC-IRC-IRC-IRC
                          Input orientation:                          
 ---------------------------------------------------------------------
 Center     Atomic      Atomic             Coordinates (Angstroms)
 Number     Number       Type             X           Y           Z
 ---------------------------------------------------------------------
      1          6           0        1.249831    0.871405   -0.701908
      2          6           0        1.036412   -0.652413   -0.041603
      3          6           0        0.221617   -0.259912    1.375529
      4          6           0       -1.084212    0.445753    1.055362
      5          6           0       -0.820595    1.837240    0.447737
      6          6           0        0.035254    1.775391   -0.830382
      7          1           0        1.990432    1.274545   -0.010139
      8          1           0        1.734756    0.674356   -1.659018
      9          1           0       -1.589302    0.597692    2.022943
     10          1           0       -1.769514    2.344624    0.239011
     11          1           0       -0.299084    2.442552    1.200879
     12          1           0       -0.575550    1.503743   -1.695673
     13          1           0        0.414727    2.782204   -1.055303
     14          1           0        0.941899    0.351658    1.917609
     15          8           0        2.185233   -1.100041    0.316639
     16          6           0       -1.960237   -0.476419    0.206000
     17          1           0       -2.281810   -1.327412    0.817820
     18          1           0       -2.867843    0.034146   -0.135313
     19          6           0       -1.190566   -1.034857   -1.028496
     20          7           0        0.171521   -1.414152   -0.794320
     21          1           0       -1.715972   -1.912136   -1.423027
     22          1           0       -1.226750   -0.284590   -1.835689
     23          1           0        0.095474   -1.214975    1.885223
 ---------------------------------------------------------------------
                    Distance matrix (angstroms):
                    1          2          3          4          5
     1  C    0.000000
     2  C    1.674387   0.000000
     3  C    2.579312   1.681133   0.000000
     4  C    2.952446   2.627993   1.518440   0.000000
     5  C    2.557575   3.144249   2.518939   1.541083   0.000000
     6  C    1.519505   2.742029   3.007197   2.564600   1.539445
     7  H    1.090667   2.150421   2.720908   3.357920   2.903128
     8  H    1.090889   2.205455   3.517232   3.920038   3.510062
     9  H    3.944669   3.566439   2.105721   1.102005   2.146780
    10  H    3.488861   4.115117   3.469854   2.177562   1.096108
    11  H    2.913458   3.592508   2.757706   2.150536   1.097997
    12  H    2.172426   3.159648   3.630184   2.991032   2.182997
    13  H    2.115050   3.634649   3.898808   3.487224   2.162894
    14  H    2.688276   2.203543   1.089346   2.203962   2.733837
    15  O    2.408115   1.283938   2.383873   3.691133   4.204737
    16  C    3.597981   3.012007   2.484988   1.529457   2.590413
    17  H    4.429092   3.493541   2.778083   2.152855   3.505300
    18  H    4.239962   3.965268   3.451649   2.183682   2.789681
    19  C    3.113845   2.465695   2.893810   2.558512   3.250398
    20  N    2.528846   1.376541   2.458257   2.908168   3.619192
    21  H    4.130872   3.327289   3.783651   3.478675   4.284773
    22  H    2.958925   2.911347   3.522826   2.985280   3.143432
    23  H    3.518347   2.216866   1.089883   2.199623   3.495935
                    6          7          8          9         10
     6  C    0.000000
     7  H    2.178616   0.000000
     8  H    2.187972   1.773244   0.000000
     9  H    3.488212   4.172056   4.961056   0.000000
    10  H    2.173664   3.917186   4.321136   2.503330   0.000000
    11  H    2.164003   2.841248   3.929635   2.396656   1.759814
    12  H    1.093436   3.078607   2.454941   3.959385   2.423971
    13  H    1.099210   2.418315   2.559290   4.273620   2.576362
    14  H    3.224977   2.380621   3.677637   2.545311   3.760500
    15  O    3.769108   2.404868   2.693443   4.476705   5.245166
    16  C    3.182251   4.326705   4.295992   2.143033   2.827675
    17  H    4.208651   5.070281   5.125876   2.374429   3.752507
    18  H    3.455868   5.015685   4.890344   2.571054   2.585488
    19  C    3.072357   4.060682   3.446226   3.483603   3.655495
    20  N    3.192656   3.339530   2.748321   3.883940   4.354743
    21  H    4.125031   5.088086   4.318930   4.264973   4.570038
    22  H    2.616643   4.014199   3.117901   3.974785   3.392895
    23  H    4.039854   3.658001   4.338024   2.478547   4.342687
                   11         12         13         14         15
    11  H    0.000000
    12  H    3.057419   0.000000
    13  H    2.390659   1.739306   0.000000
    14  H    2.534872   4.084820   3.876038   0.000000
    15  O    4.416297   4.295464   4.482046   2.493274   0.000000
    16  C    3.502799   3.074859   4.224922   3.469541   4.193575
    17  H    4.276746   4.152638   5.260118   3.797514   4.500817
    18  H    3.766211   3.138319   4.378753   4.339290   5.198482
    19  C    4.225781   2.695896   4.140971   3.892219   3.634509
    20  N    4.367660   3.143988   4.211491   3.326579   2.321191
    21  H    5.277856   3.611527   5.168358   4.832069   4.348026
    22  H    4.185524   1.908350   3.564923   4.381221   4.115715
    23  H    3.741858   4.545823   4.972530   1.780961   2.615484
                   16         17         18         19         20
    16  C    0.000000
    17  H    1.096322   0.000000
    18  H    1.095865   1.762310   0.000000
    19  C    1.558277   2.164552   2.180322   0.000000
    20  N    2.534636   2.936896   3.430684   1.433173   0.000000
    21  H    2.185104   2.384003   2.602505   1.096050   2.050827
    22  H    2.177911   3.040023   2.384546   1.102620   2.077384
    23  H    2.755213   2.608346   3.797909   3.189999   2.688011
                   21         22         23
    21  H    0.000000
    22  H    1.748867   0.000000
    23  H    3.835607   4.056979   0.000000
 Symmetry turned off by external request.
 Stoichiometry    C8H13NO
 Framework group  C1[X(C8H13NO)]
 Deg. of freedom    63
 Full point group                 C1      NOp   1
 Rotational constants (GHZ):           1.8395921           1.4635550           1.2109893
 Standard basis: 6-31+G(d,p) (6D, 7F)
   255 basis functions,   411 primitive gaussians,   255 cartesian basis functions
    38 alpha electrons       38 beta electrons
       nuclear repulsion energy       577.1760723906 Hartrees.
 NAtoms=   23 NActive=   23 NUniq=   23 SFac= 1.00D+00 NAtFMM=   60 NAOKFM=F Big=F
 Integral buffers will be    131072 words long.
 Raffenetti 2 integral format.
 Two-electron integral symmetry is turned off.
 One-electron integrals computed using PRISM.
 NBasis=   255 RedAO= T EigKep=  1.16D-05  NBF=   255
 NBsUse=   255 1.00D-06 EigRej= -1.00D+00 NBFU=   255
 Initial guess from the checkpoint file:  "/scratch/Grace/g03/Gau-29258.chk"
 B after Tr=     0.000042    0.000047   -0.000050
         Rot=    1.000000   -0.000038   -0.000010   -0.000007 Ang=  -0.00 deg.
 ExpMin= 4.38D-02 ExpMax= 5.48D+03 ExpMxC= 8.25D+02 IAcc=2 IRadAn=         4 AccDes= 0.00D+00
 Harris functional with IExCor=  402 and IRadAn=       4 diagonalized for initial guess.
 HarFok:  IExCor=  402 AccDes= 0.00D+00 IRadAn=         4 IDoV= 1 UseB2=F ITyADJ=14
 ICtDFT=  3500011 ScaDFX=  1.000000  1.000000  1.000000  1.000000
 FoFCou: FMM=F IPFlag=           0 FMFlag=      100000 FMFlg1=           0
         NFxFlg=           0 DoJE=T BraDBF=F KetDBF=T FulRan=T
         wScrn=  0.000000 ICntrl=       500 IOpCl=  0 I1Cent=   200000004 NGrid=           0
         NMat0=    1 NMatS0=      1 NMatT0=    0 NMatD0=    1 NMtDS0=    0 NMtDT0=    0
 Symmetry not used in FoFCou.
 Requested convergence on RMS density matrix=1.00D-08 within 128 cycles.
 Requested convergence on MAX density matrix=1.00D-06.
 Requested convergence on             energy=1.00D-06.
 No special actions if energy rises.
 EnCoef did     5 forward-backward iterations
 SCF Done:  E(RB3LYP) =  -442.547366918     A.U. after   13 cycles
            NFock= 13  Conv=0.43D-08     -V/T= 2.0096
 DoSCS=F DFT=T ScalE2(SS,OS)=  1.000000  1.000000
 Range of M.O.s used for correlation:     1   255
 NBasis=   255 NAE=    38 NBE=    38 NFC=     0 NFV=     0
 NROrb=    255 NOA=    38 NOB=    38 NVA=   217 NVB=   217

 **** Warning!!: The largest alpha MO coefficient is  0.96116474D+02


 **** Warning!!: The smallest alpha delta epsilon is  0.85108151D-01

 Symmetrizing basis deriv contribution to polar:
 IMax=3 JMax=2 DiffMx= 0.00D+00
 Calling FoFJK, ICntrl=      2147 FMM=F ISym2X=0 I1Cent= 0 IOpClX= 0 NMat=1 NMatS=1 NMatT=0.
 -------------------------------------------------------------------
 Center     Atomic                   Forces (Hartrees/Bohr)
 Number     Number              X              Y              Z
 -------------------------------------------------------------------
      1        6           0.000192641   -0.000117792    0.000370934
      2        6           0.001181576    0.001467457   -0.002733287
      3        6          -0.000366075   -0.000450830    0.000116865
      4        6           0.000126321   -0.000225038   -0.000313159
      5        6           0.000046995   -0.000046736    0.000042104
      6        6           0.000105403    0.000316058    0.000091369
      7        1           0.000028112    0.000108260   -0.000050138
      8        1           0.000015650    0.000120549   -0.000000521
      9        1           0.000045696   -0.000067382    0.000005406
     10        1          -0.000006195   -0.000012980    0.000027820
     11        1          -0.000000820   -0.000015701    0.000016852
     12        1           0.000010370    0.000015350    0.000013039
     13        1          -0.000031771    0.000039434    0.000022088
     14        1           0.000054499   -0.000064993   -0.000091039
     15        8          -0.000475781    0.000064105    0.000580058
     16        6          -0.000134819   -0.000039628   -0.000009075
     17        1           0.000002787   -0.000016112   -0.000015493
     18        1          -0.000004818    0.000001399   -0.000004820
     19        6           0.000122912    0.000200577   -0.000438085
     20        7          -0.000937671   -0.001319750    0.002443480
     21        1          -0.000039412    0.000045755   -0.000027970
     22        1           0.000046454    0.000082138    0.000042241
     23        1           0.000017946   -0.000084140   -0.000088668
 -------------------------------------------------------------------
 Cartesian Forces:  Max     0.002733287 RMS     0.000556433
 IRC-IRC-IRC-IRC-IRC-IRC-IRC-IRC-IRC-IRC-IRC-IRC-IRC-IRC-IRC-IRC-IRC-IRC
 Pt  3 Step number   1 out of a maximum of 100
 Point Number:   3          Path Number:   1
   CHANGE IN THE REACTION COORDINATE =    0.05600
   NET REACTION COORDINATE UP TO THIS POINT =    0.16802
  # OF POINTS ALONG THE PATH =   3
  # OF STEPS =   1

 Calculating another point on the path.
 IRC-IRC-IRC-IRC-IRC-IRC-IRC-IRC-IRC-IRC-IRC-IRC-IRC-IRC-IRC-IRC-IRC-IRC
                          Input orientation:                          
 ---------------------------------------------------------------------
 Center     Atomic      Atomic             Coordinates (Angstroms)
 Number     Number       Type             X           Y           Z
 ---------------------------------------------------------------------
      1          6           0        1.250176    0.871187   -0.701209
      2          6           0        1.038581   -0.649643   -0.046710
      3          6           0        0.220928   -0.260747    1.375742
      4          6           0       -1.083980    0.445328    1.054774
      5          6           0       -0.820506    1.837149    0.447814
      6          6           0        0.035456    1.775979   -0.830218
      7          1           0        1.991169    1.277078   -0.011220
      8          1           0        1.735137    0.676985   -1.659104
      9          1           0       -1.588299    0.596210    2.023090
     10          1           0       -1.769653    2.344333    0.239633
     11          1           0       -0.299097    2.442195    1.201254
     12          1           0       -0.575338    1.504097   -1.695409
     13          1           0        0.413988    2.783096   -1.054813
     14          1           0        0.943131    0.350239    1.915669
     15          8           0        2.184608   -1.099969    0.317460
     16          6           0       -1.960494   -0.476485    0.205981
     17          1           0       -2.281746   -1.327797    0.817450
     18          1           0       -2.867960    0.034167   -0.135402
     19          6           0       -1.190342   -1.034481   -1.029300
     20          7           0        0.170017   -1.416289   -0.790415
     21          1           0       -1.716831   -1.911069   -1.423653
     22          1           0       -1.225672   -0.282635   -1.834799
     23          1           0        0.095879   -1.216935    1.883226
 ---------------------------------------------------------------------
                    Distance matrix (angstroms):
                    1          2          3          4          5
     1  C    0.000000
     2  C    1.669151   0.000000
     3  C    2.579603   1.686169   0.000000
     4  C    2.951799   2.630113   1.518009   0.000000
     5  C    2.557550   3.144025   2.519287   1.541098   0.000000
     6  C    1.520144   2.739304   3.008141   2.564559   1.539408
     7  H    1.090827   2.149636   2.724394   3.359270   2.903431
     8  H    1.091085   2.201125   3.518873   3.919978   3.509473
     9  H    3.943901   3.568853   2.103981   1.102151   2.147307
    10  H    3.489228   4.114858   3.469812   2.177342   1.096109
    11  H    2.913361   3.592527   2.758037   2.150575   1.098007
    12  H    2.172904   3.156190   3.630521   2.990521   2.182758
    13  H    2.116517   3.631816   3.899981   3.487037   2.162563
    14  H    2.685835   2.204497   1.089220   2.204396   2.734211
    15  O    2.407552   1.284053   2.383337   3.689885   4.204089
    16  C    3.598280   3.014679   2.484651   1.529204   2.590552
    17  H    4.429032   3.497318   2.777348   2.152891   3.505530
    18  H    4.240258   3.966929   3.451342   2.183611   2.789795
    19  C    3.113735   2.466107   2.893886   2.558225   3.250370
    20  N    2.531255   1.376680   2.455627   2.905658   3.619283
    21  H    4.131102   3.328582   3.783528   3.477888   4.284265
    22  H    2.957390   2.908401   3.521464   2.983226   3.141332
    23  H    3.517379   2.221522   1.089712   2.200345   3.496798
                    6          7          8          9         10
     6  C    0.000000
     7  H    2.178182   0.000000
     8  H    2.187181   1.772340   0.000000
     9  H    3.488523   4.173079   4.960877   0.000000
    10  H    2.173942   3.917364   4.320742   2.503905   0.000000
    11  H    2.163942   2.841286   3.928832   2.396897   1.759781
    12  H    1.093410   3.078147   2.454329   3.959492   2.424205
    13  H    1.099097   2.417577   2.558575   4.273770   2.576119
    14  H    3.224360   2.381242   3.676009   2.545619   3.760944
    15  O    3.769231   2.407447   2.695626   4.474486   5.244564
    16  C    3.182942   4.328718   4.297293   2.142682   2.827466
    17  H    4.209235   5.072462   5.127165   2.374077   3.752419
    18  H    3.456371   5.017110   4.891154   2.571481   2.585304
    19  C    3.072605   4.062242   3.447347   3.483476   3.655431
    20  N    3.195351   3.343347   2.754273   3.880417   4.354951
    21  H    4.125167   5.090041   4.320827   4.264153   4.569218
    22  H    2.614865   4.013254   3.117391   3.973307   3.391186
    23  H    4.040292   3.660758   4.338457   2.478610   4.343297
                   11         12         13         14         15
    11  H    0.000000
    12  H    3.057285   0.000000
    13  H    2.390510   1.739244   0.000000
    14  H    2.535704   4.083750   3.875893   0.000000
    15  O    4.415519   4.295358   4.482904   2.489708   0.000000
    16  C    3.502785   3.075166   4.225238   3.469516   4.193213
    17  H    4.276803   4.152820   5.260399   3.797594   4.500024
    18  H    3.766206   3.138540   4.378711   4.339494   5.198057
    19  C    4.225751   2.695610   4.141066   3.891272   3.634328
    20  N    4.367460   3.146939   4.214767   3.322833   2.320781
    21  H    5.277406   3.611124   5.168329   4.831147   4.348630
    22  H    4.183402   1.906508   3.563084   4.378384   4.114640
    23  H    3.743036   4.545456   4.973280   1.781831   2.613063
                   16         17         18         19         20
    16  C    0.000000
    17  H    1.096280   0.000000
    18  H    1.095811   1.762533   0.000000
    19  C    1.558978   2.165106   2.180703   0.000000
    20  N    2.532808   2.933292   3.429602   1.432976   0.000000
    21  H    2.184745   2.383669   2.601660   1.095952   2.050851
    22  H    2.177688   3.040079   2.384413   1.102429   2.079388
    23  H    2.755011   2.607924   3.797954   3.189116   2.682088
                   21         22         23
    21  H    0.000000
    22  H    1.749880   0.000000
    23  H    3.834473   4.055012   0.000000
 Symmetry turned off by external request.
 Stoichiometry    C8H13NO
 Framework group  C1[X(C8H13NO)]
 Deg. of freedom    63
 Full point group                 C1      NOp   1
 Rotational constants (GHZ):           1.8394439           1.4641045           1.2108059
 Standard basis: 6-31+G(d,p) (6D, 7F)
   255 basis functions,   411 primitive gaussians,   255 cartesian basis functions
    38 alpha electrons       38 beta electrons
       nuclear repulsion energy       577.1867834698 Hartrees.
 NAtoms=   23 NActive=   23 NUniq=   23 SFac= 1.00D+00 NAtFMM=   60 NAOKFM=F Big=F
 Integral buffers will be    131072 words long.
 Raffenetti 2 integral format.
 Two-electron integral symmetry is turned off.
 One-electron integrals computed using PRISM.
 NBasis=   255 RedAO= T EigKep=  1.16D-05  NBF=   255
 NBsUse=   255 1.00D-06 EigRej= -1.00D+00 NBFU=   255
 Initial guess from the checkpoint file:  "/scratch/Grace/g03/Gau-29258.chk"
 B after Tr=     0.000041    0.000046   -0.000051
         Rot=    1.000000   -0.000038   -0.000010   -0.000007 Ang=  -0.00 deg.
 ExpMin= 4.38D-02 ExpMax= 5.48D+03 ExpMxC= 8.25D+02 IAcc=2 IRadAn=         4 AccDes= 0.00D+00
 Harris functional with IExCor=  402 and IRadAn=       4 diagonalized for initial guess.
 HarFok:  IExCor=  402 AccDes= 0.00D+00 IRadAn=         4 IDoV= 1 UseB2=F ITyADJ=14
 ICtDFT=  3500011 ScaDFX=  1.000000  1.000000  1.000000  1.000000
 FoFCou: FMM=F IPFlag=           0 FMFlag=      100000 FMFlg1=           0
         NFxFlg=           0 DoJE=T BraDBF=F KetDBF=T FulRan=T
         wScrn=  0.000000 ICntrl=       500 IOpCl=  0 I1Cent=   200000004 NGrid=           0
         NMat0=    1 NMatS0=      1 NMatT0=    0 NMatD0=    1 NMtDS0=    0 NMtDT0=    0
 Symmetry not used in FoFCou.
 Requested convergence on RMS density matrix=1.00D-08 within 128 cycles.
 Requested convergence on MAX density matrix=1.00D-06.
 Requested convergence on             energy=1.00D-06.
 No special actions if energy rises.
 EnCoef did     5 forward-backward iterations
 SCF Done:  E(RB3LYP) =  -442.547452834     A.U. after   13 cycles
            NFock= 13  Conv=0.46D-08     -V/T= 2.0096
 DoSCS=F DFT=T ScalE2(SS,OS)=  1.000000  1.000000
 Range of M.O.s used for correlation:     1   255
 NBasis=   255 NAE=    38 NBE=    38 NFC=     0 NFV=     0
 NROrb=    255 NOA=    38 NOB=    38 NVA=   217 NVB=   217

 **** Warning!!: The largest alpha MO coefficient is  0.96341093D+02


 **** Warning!!: The smallest alpha delta epsilon is  0.85327315D-01

 Symmetrizing basis deriv contribution to polar:
 IMax=3 JMax=2 DiffMx= 0.00D+00
 Calling FoFJK, ICntrl=      2147 FMM=F ISym2X=0 I1Cent= 0 IOpClX= 0 NMat=1 NMatS=1 NMatT=0.
 -------------------------------------------------------------------
 Center     Atomic                   Forces (Hartrees/Bohr)
 Number     Number              X              Y              Z
 -------------------------------------------------------------------
      1        6           0.000258073   -0.000145001    0.000453414
      2        6           0.001573972    0.001903721   -0.003597402
      3        6          -0.000505888   -0.000618194    0.000153957
      4        6           0.000160813   -0.000302629   -0.000412924
      5        6           0.000064421   -0.000066962    0.000054370
      6        6           0.000137107    0.000416082    0.000114261
      7        1           0.000037873    0.000141563   -0.000065213
      8        1           0.000022270    0.000160485   -0.000004159
      9        1           0.000059345   -0.000088551    0.000007157
     10        1          -0.000007866   -0.000017304    0.000036713
     11        1          -0.000000654   -0.000021347    0.000022101
     12        1           0.000013029    0.000021398    0.000016270
     13        1          -0.000041456    0.000052048    0.000029416
     14        1           0.000072366   -0.000087955   -0.000121486
     15        8          -0.000611275    0.000093402    0.000758723
     16        6          -0.000185745   -0.000056434   -0.000013731
     17        1           0.000003778   -0.000022288   -0.000020827
     18        1          -0.000007453    0.000001151   -0.000005887
     19        6           0.000169938    0.000287399   -0.000577424
     20        7          -0.001246024   -0.001708352    0.003272188
     21        1          -0.000048938    0.000061056   -0.000036732
     22        1           0.000061155    0.000110257    0.000052983
     23        1           0.000021158   -0.000113547   -0.000115770
 -------------------------------------------------------------------
 Cartesian Forces:  Max     0.003597402 RMS     0.000734998
 IRC-IRC-IRC-IRC-IRC-IRC-IRC-IRC-IRC-IRC-IRC-IRC-IRC-IRC-IRC-IRC-IRC-IRC
 Pt  4 Step number   1 out of a maximum of 100
 Point Number:   4          Path Number:   1
   CHANGE IN THE REACTION COORDINATE =    0.05601
   NET REACTION COORDINATE UP TO THIS POINT =    0.22402
  # OF POINTS ALONG THE PATH =   4
  # OF STEPS =   1

 Calculating another point on the path.
 IRC-IRC-IRC-IRC-IRC-IRC-IRC-IRC-IRC-IRC-IRC-IRC-IRC-IRC-IRC-IRC-IRC-IRC
                          Input orientation:                          
 ---------------------------------------------------------------------
 Center     Atomic      Atomic             Coordinates (Angstroms)
 Number     Number       Type             X           Y           Z
 ---------------------------------------------------------------------
      1          6           0        1.250533    0.870986   -0.700570
      2          6           0        1.040785   -0.646936   -0.051797
      3          6           0        0.220205   -0.261622    1.375958
      4          6           0       -1.083757    0.444896    1.054187
[...]
     20          7           0        0.131489   -1.185355   -0.018512
     21          1           0       -1.464075   -2.087755   -1.036021
     22          1           0       -0.821216   -0.672390   -1.853827
     23          1           0       -0.902941   -1.701429    1.768230
 ---------------------------------------------------------------------
                    Distance matrix (angstroms):
                    1          2          3          4          5
     1  C    0.000000
     2  C    1.525486   0.000000
     3  C    3.422709   2.376448   0.000000
     4  C    3.400613   3.020426   1.543315   0.000000
     5  C    2.674918   2.889955   2.579410   1.560089   0.000000
     6  C    1.562765   2.554227   3.391268   2.675758   1.555867
     7  H    1.091629   2.097203   4.159224   4.218314   3.257260
     8  H    1.095720   2.183720   4.099980   4.064874   3.510950
     9  H    4.434784   4.038422   2.195546   1.096421   2.174832
    10  H    3.552389   3.968722   3.477285   2.158073   1.096970
    11  H    2.918762   2.922188   2.715500   2.180611   1.098272
    12  H    2.189513   3.188394   3.813783   2.904937   2.169001
    13  H    2.159940   3.367742   4.340941   3.559791   2.148928
    14  H    3.613770   2.460357   1.090375   2.239121   2.818846
    15  O    2.394113   1.222025   2.884619   3.817422   3.634087
    16  C    3.615736   3.417040   2.368113   1.543187   2.575280
    17  H    4.659043   4.274892   2.782209   2.178891   3.494114
    18  H    3.785965   4.008385   3.348139   2.218019   2.721620
    19  C    2.928438   2.516055   2.355899   2.425965   3.171895
    20  N    2.522491   1.410566   1.484175   2.338067   2.945639
    21  H    3.883620   3.287990   2.914071   3.236865   4.208630
    22  H    2.527753   2.626825   3.249479   3.135512   3.429170
    23  H    4.417066   3.283003   1.096692   2.193937   3.532830
                    6          7          8          9         10
     6  C    0.000000
     7  H    2.204578   0.000000
     8  H    2.195880   1.755472   0.000000
     9  H    3.549232   5.179667   5.135593   0.000000
    10  H    2.136392   4.064808   4.291630   2.335812   0.000000
    11  H    2.183527   3.188091   3.937439   2.609643   1.752556
    12  H    1.094666   2.999382   2.329826   3.746632   2.460946
    13  H    1.095571   2.314710   2.745489   4.280209   2.355299
    14  H    3.711127   4.092364   4.462840   2.697492   3.737032
    15  O    3.483786   2.440359   3.106566   4.699592   4.708446
    16  C    2.989886   4.642957   3.870626   2.200374   3.010264
    17  H    4.076982   5.688754   4.873568   2.414420   3.811768
    18  H    2.864959   4.794927   3.909980   2.742042   2.842182
    19  C    3.031659   3.990914   2.943374   3.378015   3.948522
    20  N    3.015859   3.377907   2.928587   3.321676   3.963135
    21  H    4.120227   4.916525   3.750894   4.037616   4.953174
    22  H    2.769657   3.592544   2.187147   4.145365   4.149365
    23  H    4.393693   5.195639   4.974454   2.497413   4.301642
                   11         12         13         14         15
    11  H    0.000000
    12  H    3.074414   0.000000
    13  H    2.495927   1.740806   0.000000
    14  H    2.505562   4.380373   4.497328   0.000000
    15  O    3.296648   4.283048   4.095187   2.501514   0.000000
    16  C    3.484400   2.666275   3.991392   3.378759   4.477201
    17  H    4.325551   3.719184   5.060499   3.831377   5.251603
    18  H    3.785807   2.207979   3.715041   4.276537   5.145828
    19  C    3.895059   2.814981   4.118603   3.312634   3.624506
    20  N    3.256073   3.322115   4.046570   2.121344   2.283392
    21  H    4.895864   3.830931   5.201981   3.897177   4.262103
    22  H    4.207173   2.359619   3.763613   4.082120   3.815268
    23  H    3.715281   4.670518   5.376490   1.776475   3.707837
                   16         17         18         19         20
    16  C    0.000000
    17  H    1.095084   0.000000
    18  H    1.094236   1.762823   0.000000
    19  C    1.560819   2.196918   2.226500   0.000000
    20  N    2.435964   3.080428   3.281845   1.481041   0.000000
    21  H    2.205896   2.344065   2.900013   1.095054   2.096538
    22  H    2.231368   3.007731   2.425723   1.091079   2.130530
    23  H    2.665567   2.635351   3.743841   2.719014   2.128104
                   21         22         23
    21  H    0.000000
    22  H    1.756511   0.000000
    23  H    2.885817   3.766284   0.000000
 Symmetry turned off by external request.
 Stoichiometry    C8H13NO
 Framework group  C1[X(C8H13NO)]
 Deg. of freedom    63
 Full point group                 C1      NOp   1
 Rotational constants (GHZ):           1.9339219           1.4533095           1.2151488

 **********************************************************************

            Population analysis using the SCF density.

 **********************************************************************

 Alpha  occ. eigenvalues --  -19.13146 -14.35164 -10.29220 -10.22605 -10.22205
 Alpha  occ. eigenvalues --  -10.20509 -10.20470 -10.20103 -10.19963 -10.19866
 Alpha  occ. eigenvalues --   -1.04365  -0.94483  -0.81078  -0.79053  -0.74578
 Alpha  occ. eigenvalues --   -0.69392  -0.65629  -0.62003  -0.56071  -0.54224
 Alpha  occ. eigenvalues --   -0.51082  -0.49519  -0.47760  -0.45066  -0.43993
 Alpha  occ. eigenvalues --   -0.43342  -0.40990  -0.40553  -0.40055  -0.37771
 Alpha  occ. eigenvalues --   -0.37147  -0.35791  -0.34702  -0.33944  -0.33537
 Alpha  occ. eigenvalues --   -0.32281  -0.25625  -0.24129
 Alpha virt. eigenvalues --   -0.01438  -0.00473   0.00860   0.01272   0.02013
 Alpha virt. eigenvalues --    0.03492   0.03685   0.04249   0.04862   0.05369
 Alpha virt. eigenvalues --    0.07072   0.07801   0.08269   0.08561   0.09002
 Alpha virt. eigenvalues --    0.09617   0.09784   0.11246   0.11986   0.12616
 Alpha virt. eigenvalues --    0.12830   0.13088   0.13544   0.13953   0.14985
 Alpha virt. eigenvalues --    0.15468   0.16152   0.17004   0.17566   0.18236
 Alpha virt. eigenvalues --    0.18784   0.19164   0.19484   0.19547   0.19894
 Alpha virt. eigenvalues --    0.20807   0.21379   0.22489   0.23085   0.23411
 Alpha virt. eigenvalues --    0.24773   0.25824   0.26549   0.27255   0.27933
 Alpha virt. eigenvalues --    0.29109   0.29565   0.30233   0.31209   0.31909
 Alpha virt. eigenvalues --    0.32519   0.33706   0.34368   0.34758   0.35817
 Alpha virt. eigenvalues --    0.37415   0.38286   0.38611   0.38859   0.40027
 Alpha virt. eigenvalues --    0.40303   0.44008   0.45380   0.47330   0.50643
 Alpha virt. eigenvalues --    0.59166   0.61787   0.63478   0.64357   0.65440
 Alpha virt. eigenvalues --    0.67431   0.67941   0.68878   0.69584   0.73453
 Alpha virt. eigenvalues --    0.75221   0.76203   0.76361   0.78227   0.79882
 Alpha virt. eigenvalues --    0.81554   0.82443   0.84787   0.87022   0.87881
 Alpha virt. eigenvalues --    0.89964   0.91543   0.92874   0.94398   0.96388
 Alpha virt. eigenvalues --    0.96978   0.99274   1.00191   1.02487   1.04149
 Alpha virt. eigenvalues --    1.05751   1.07365   1.08376   1.09552   1.11367
 Alpha virt. eigenvalues --    1.12670   1.14527   1.15684   1.16489   1.20351
 Alpha virt. eigenvalues --    1.23329   1.27613   1.29167   1.32569   1.34185
 Alpha virt. eigenvalues --    1.36735   1.40395   1.40792   1.44235   1.45974
 Alpha virt. eigenvalues --    1.50055   1.51568   1.56636   1.56820   1.59363
 Alpha virt. eigenvalues --    1.63266   1.64943   1.68266   1.68852   1.70971
 Alpha virt. eigenvalues --    1.74652   1.75171   1.78687   1.80059   1.81783
 Alpha virt. eigenvalues --    1.83230   1.84862   1.86687   1.87753   1.89841
 Alpha virt. eigenvalues --    1.92481   1.93164   1.96252   1.97606   2.01257
 Alpha virt. eigenvalues --    2.02846   2.05051   2.06601   2.08783   2.09622
 Alpha virt. eigenvalues --    2.11769   2.13966   2.16131   2.18159   2.21984
 Alpha virt. eigenvalues --    2.22660   2.27696   2.28135   2.30443   2.31333
 Alpha virt. eigenvalues --    2.32671   2.35407   2.37352   2.38369   2.39702
 Alpha virt. eigenvalues --    2.41643   2.42642   2.44777   2.46512   2.46972
 Alpha virt. eigenvalues --    2.51446   2.52189   2.55877   2.57897   2.58139
 Alpha virt. eigenvalues --    2.59194   2.60296   2.62415   2.64701   2.67099
 Alpha virt. eigenvalues --    2.69717   2.70718   2.72068   2.75320   2.77099
 Alpha virt. eigenvalues --    2.80482   2.81092   2.82002   2.82407   2.84685
 Alpha virt. eigenvalues --    2.85621   2.89561   2.92380   2.95392   2.96987
 Alpha virt. eigenvalues --    3.01497   3.08076   3.10156   3.20881   3.27940
 Alpha virt. eigenvalues --    3.31574   3.32143   3.36101   3.37910   3.39231
 Alpha virt. eigenvalues --    3.43475   3.45115   3.48048   3.51517   3.53496
 Alpha virt. eigenvalues --    3.57497   3.59846   4.31518   4.36189   4.41623
 Alpha virt. eigenvalues --    4.44762   4.58617   4.64355   4.71486   4.79902
 Alpha virt. eigenvalues --    4.85185   4.90576
          Condensed to atoms (all electrons):
               1          2          3          4          5          6
     1  C    6.633207  -0.616344   0.296269  -0.345582   0.140786  -0.278884
     2  C   -0.616344   6.127807  -0.533748   0.574045  -0.250355   0.200087
     3  C    0.296269  -0.533748   5.874483  -0.169836   0.101178  -0.191155
     4  C   -0.345582   0.574045  -0.169836   6.694815  -0.315910   0.061688
     5  C    0.140786  -0.250355   0.101178  -0.315910   5.715282   0.003060
     6  C   -0.278884   0.200087  -0.191155   0.061688   0.003060   5.763679
     7  H    0.434697  -0.048477   0.003427  -0.013796   0.006642  -0.057970
     8  H    0.346355  -0.014699   0.003311  -0.000780   0.016880  -0.039148
     9  H   -0.001501  -0.008591  -0.012060   0.261847  -0.001553   0.022015
    10  H    0.048306  -0.028619   0.033958  -0.069418   0.432342  -0.086657
    11  H    0.002580  -0.001056  -0.007520  -0.051621   0.419331  -0.049572
    12  H   -0.041078   0.004088  -0.006449   0.004019  -0.068987   0.426049
    13  H   -0.021101   0.005564   0.002168   0.007737  -0.017591   0.357313
    14  H    0.001894   0.006080   0.419221  -0.010581  -0.031849   0.002112
    15  O   -0.264245   0.682123  -0.088139   0.040705  -0.043793   0.058043
    16  C    0.047493  -0.079107   0.129211  -0.051292   0.055584  -0.090478
    17  H    0.003357  -0.000951   0.016057  -0.076374   0.010106  -0.004315
    18  H   -0.002704  -0.001076   0.011131  -0.065451   0.014744  -0.015919
    19  C   -0.054456   0.062299  -0.234839   0.011719  -0.077873   0.069436
    20  N   -0.165567  -0.119865   0.316895  -0.577692   0.207074   0.052265
    21  H    0.007069  -0.022496   0.000600  -0.013410   0.011243  -0.005405
    22  H   -0.007483   0.009837  -0.000668   0.031931  -0.008670   0.002993
    23  H    0.000997  -0.001956   0.402493  -0.107291   0.028288   0.002531
               7          8          9         10         11         12
     1  C    0.434697   0.346355  -0.001501   0.048306   0.002580  -0.041078
     2  C   -0.048477  -0.014699  -0.008591  -0.028619  -0.001056   0.004088
     3  C    0.003427   0.003311  -0.012060   0.033958  -0.007520  -0.006449
     4  C   -0.013796  -0.000780   0.261847  -0.069418  -0.051621   0.004019
     5  C    0.006642   0.016880  -0.001553   0.432342   0.419331  -0.068987
     6  C   -0.057970  -0.039148   0.022015  -0.086657  -0.049572   0.426049
     7  H    0.521790  -0.026815   0.000003  -0.000068   0.000941   0.004202
     8  H   -0.026815   0.558743   0.000003  -0.000133  -0.000057  -0.010331
     9  H    0.000003   0.000003   0.595577  -0.007855  -0.000187  -0.000018
    10  H   -0.000068  -0.000133  -0.007855   0.581517  -0.028487  -0.002880
    11  H    0.000941  -0.000057  -0.000187  -0.028487   0.567595   0.005116
    12  H    0.004202  -0.010331  -0.000018  -0.002880   0.005116   0.590657
    13  H   -0.009035   0.001898  -0.000087  -0.005052  -0.003116  -0.031234
    14  H   -0.000024  -0.000023  -0.000144   0.000129   0.003061   0.000010
    15  O   -0.006475   0.004040  -0.000085   0.000213  -0.000319  -0.000562
    16  C    0.004734   0.002799  -0.004542  -0.005313   0.006700  -0.008036
    17  H    0.000001  -0.000004  -0.005112  -0.000061  -0.000122   0.000053
    18  H   -0.000006   0.000037   0.000542   0.001522   0.000120   0.001843
    19  C   -0.003878  -0.004765   0.008390   0.000455  -0.001793   0.002305
    20  N    0.013552   0.005849   0.025652  -0.003471  -0.014361  -0.005439
    21  H   -0.000000   0.000147  -0.000011   0.000000   0.000011   0.000106
    22  H    0.000136  -0.000907  -0.000175   0.000030  -0.000000   0.000653
    23  H    0.000006   0.000007  -0.000888  -0.000162   0.000194   0.000000
              13         14         15         16         17         18
     1  C   -0.021101   0.001894  -0.264245   0.047493   0.003357  -0.002704
     2  C    0.005564   0.006080   0.682123  -0.079107  -0.000951  -0.001076
     3  C    0.002168   0.419221  -0.088139   0.129211   0.016057   0.011131
     4  C    0.007737  -0.010581   0.040705  -0.051292  -0.076374  -0.065451
     5  C   -0.017591  -0.031849  -0.043793   0.055584   0.010106   0.014744
     6  C    0.357313   0.002112   0.058043  -0.090478  -0.004315  -0.015919
     7  H   -0.009035  -0.000024  -0.006475   0.004734   0.000001  -0.000006
     8  H    0.001898  -0.000023   0.004040   0.002799  -0.000004   0.000037
     9  H   -0.000087  -0.000144  -0.000085  -0.004542  -0.005112   0.000542
    10  H   -0.005052   0.000129   0.000213  -0.005313  -0.000061   0.001522
    11  H   -0.003116   0.003061  -0.000319   0.006700  -0.000122   0.000120
    12  H   -0.031234   0.000010  -0.000562  -0.008036   0.000053   0.001843
    13  H    0.564127  -0.000010  -0.000179   0.002866  -0.000002   0.000019
    14  H   -0.000010   0.516751  -0.000061   0.006778  -0.000064  -0.000140
    15  O   -0.000179  -0.000061   8.130988  -0.009686  -0.000003   0.000102
    16  C    0.002866   0.006778  -0.009686   5.571932   0.446071   0.422722
    17  H   -0.000002  -0.000064  -0.000003   0.446071   0.561604  -0.030549
    18  H    0.000019  -0.000140   0.000102   0.422722  -0.030549   0.561968
    19  C   -0.001849   0.003261   0.020094   0.108504  -0.075219  -0.046176
    20  N    0.000037  -0.061736  -0.106667  -0.012079   0.011732   0.006831
    21  H   -0.000002  -0.000099  -0.000121  -0.041696  -0.008792   0.003674
    22  H    0.000111  -0.000169   0.000388  -0.059599   0.003771  -0.007141
    23  H    0.000003  -0.026612   0.000644  -0.003972   0.001444   0.000145
              19         20         21         22         23
     1  C   -0.054456  -0.165567   0.007069  -0.007483   0.000997
     2  C    0.062299  -0.119865  -0.022496   0.009837  -0.001956
     3  C   -0.234839   0.316895   0.000600  -0.000668   0.402493
     4  C    0.011719  -0.577692  -0.013410   0.031931  -0.107291
     5  C   -0.077873   0.207074   0.011243  -0.008670   0.028288
     6  C    0.069436   0.052265  -0.005405   0.002993   0.002531
     7  H   -0.003878   0.013552  -0.000000   0.000136   0.000006
     8  H   -0.004765   0.005849   0.000147  -0.000907   0.000007
     9  H    0.008390   0.025652  -0.000011  -0.000175  -0.000888
    10  H    0.000455  -0.003471   0.000000   0.000030  -0.000162
    11  H   -0.001793  -0.014361   0.000011  -0.000000   0.000194
    12  H    0.002305  -0.005439   0.000106   0.000653   0.000000
    13  H   -0.001849   0.000037  -0.000002   0.000111   0.000003
    14  H    0.003261  -0.061736  -0.000099  -0.000169  -0.026612
    15  O    0.020094  -0.106667  -0.000121   0.000388   0.000644
    16  C    0.108504  -0.012079  -0.041696  -0.059599  -0.003972
    17  H   -0.075219   0.011732  -0.008792   0.003771   0.001444
    18  H   -0.046176   0.006831   0.003674  -0.007141   0.000145
    19  C    5.504769   0.017766   0.411722   0.410800  -0.007803
    20  N    0.017766   7.602791  -0.032277  -0.047960  -0.009151
    21  H    0.411722  -0.032277   0.572410  -0.034134   0.002553
    22  H    0.410800  -0.047960  -0.034134   0.572615  -0.000108
    23  H   -0.007803  -0.009151   0.002553  -0.000108   0.577533
 Mulliken charges:
               1
     1  C   -0.164063
     2  C    0.055410
     3  C   -0.365987
     4  C    0.180527
     5  C   -0.345960
     6  C   -0.201768
     7  H    0.176412
     8  H    0.157592
     9  H    0.128782
    10  H    0.139705
    11  H    0.152563
    12  H    0.135911
    13  H    0.147414
    14  H    0.172213
    15  O   -0.417005
    16  C   -0.439593
    17  H    0.147375
    18  H    0.143761
    19  C   -0.122869
    20  N   -0.104178
    21  H    0.148906
    22  H    0.133749
    23  H    0.141105
 Sum of Mulliken charges =  -0.00000
 Mulliken charges with hydrogens summed into heavy atoms:
               1
     1  C    0.169940
     2  C    0.055410
     3  C   -0.052669
     4  C    0.309309
     5  C   -0.053692
     6  C    0.081557
    15  O   -0.417005
    16  C   -0.148458
    19  C    0.159787
    20  N   -0.104178
 APT charges:
               1
     1  C   -0.865126
     2  C   -0.277690
     3  C   -0.985263
     4  C   -0.298021
     5  C   -1.003561
     6  C   -0.757297
     7  H    0.538873
     8  H    0.442212
     9  H    0.529150
    10  H    0.532222
    11  H    0.350227
    12  H    0.352380
    13  H    0.564320
    14  H    0.395492
    15  O   -0.168039
    16  C   -1.111937
    17  H    0.543212
    18  H    0.413514
    19  C   -0.787614
    20  N    0.200651
    21  H    0.550420
    22  H    0.337413
    23  H    0.504459
 Sum of APT charges =  -0.00000
 APT charges with hydrogens summed into heavy atoms:
               1
     1  C    0.115959
     2  C   -0.277690
     3  C   -0.085311
     4  C    0.231129
     5  C   -0.121111
     6  C    0.159404
    15  O   -0.168039
    16  C   -0.155211
    19  C    0.100219
    20  N    0.200651
 Electronic spatial extent (au):  <R**2>=           1215.3097
 Charge=             -0.0000 electrons
 Dipole moment (field-independent basis, Debye):
    X=             -3.8428    Y=              1.9056    Z=             -0.9827  Tot=              4.4004
 Quadrupole moment (field-independent basis, Debye-Ang):
   XX=            -69.7605   YY=            -62.7556   ZZ=            -58.2551
   XY=              4.9330   XZ=             -2.6349   YZ=              0.1326
 Traceless Quadrupole moment (field-independent basis, Debye-Ang):
   XX=             -6.1701   YY=              0.8348   ZZ=              5.3353
   XY=              4.9330   XZ=             -2.6349   YZ=              0.1326
 Octapole moment (field-independent basis, Debye-Ang**2):
  XXX=            -10.4900  YYY=             -3.5868  ZZZ=              1.9895  XYY=              0.2539
  XXY=              4.3161  XXZ=             -4.3695  XZZ=              5.5645  YZZ=             -5.0302
  YYZ=              0.3840  XYZ=              1.2020
 Hexadecapole moment (field-independent basis, Debye-Ang**3):
 XXXX=           -789.9503 YYYY=           -533.5158 ZZZZ=           -389.8899 XXXY=             24.7806
 XXXZ=             30.0254 YYYX=             12.4635 YYYZ=             24.7334 ZZZX=             44.3015
 ZZZY=             24.7869 XXYY=           -207.4196 XXZZ=           -184.0442 YYZZ=           -155.3450
 XXYZ=              9.9558 YYXZ=             11.4418 ZZXY=              0.7285
 N-N= 5.816438879500D+02 E-N=-2.190741183402D+03  KE= 4.384332646654D+02
  Exact polarizability:   0.000   0.000   0.000   0.000   0.000   0.000
 Approx polarizability: 152.301   2.276 128.008   5.094  -4.021 132.987

 This type of calculation cannot be archived.


 "A LITTLE BIT GOES A LONG WAY"
 R.S. MULLIKEN AS QUOTED BY K. RUEDENBERG
 Job cpu time:       1 days 14 hours 59 minutes 38.8 seconds.
 Elapsed time:       0 days  2 hours 28 minutes  7.1 seconds.
 File lengths (MBytes):  RWF=    158 Int=      0 D2E=      0 Chk=     19 Scr=      1
 Normal termination of Gaussian 16 at Sun Apr 14 17:28:47 2019.
