 Entering Gaussian System, Link 0=g16
 Input=P1.com
 Output=P1.log
 Initial command:
 /opt/g16/l1.exe "/scratch/Grace/g03/Gau-32439.inp" -scrdir="/scratch/Grace/g03/"
 Entering Link 1 = /opt/g16/l1.exe PID=     32440.
  
 Copyright (c) 1988,1990,1992,1993,1995,1998,2003,2009,2016,
            Gaussian, Inc.  All Rights Reserved.
  
 This is part of the Gaussian(R) 16 program.  It is based on
 the Gaussian(R) 09 system (copyright 2009, Gaussian, Inc.),
 the Gaussian(R) 03 system (copyright 2003, Gaussian, Inc.),
 the Gaussian(R) 98 system (copyright 1998, Gaussian, Inc.),
 the Gaussian(R) 94 system (copyright 1995, Gaussian, Inc.),
 the Gaussian 92(TM) system (copyright 1992, Gaussian, Inc.),
 the Gaussian 90(TM) system (copyright 1990, Gaussian, Inc.),
 the Gaussian 88(TM) system (copyright 1988, Gaussian, Inc.),
 the Gaussian 86(TM) system (copyright 1986, Carnegie Mellon
 University), and the Gaussian 82(TM) system (copyright 1983,
 Carnegie Mellon University). Gaussian is a federally registered
 trademark of Gaussian, Inc.
  
 This software contains proprietary and confidential information,
 including trade secrets, belonging to Gaussian, Inc.
  
 This software is provided under written license and may be
 used, copied, transmitted, or stored only in accord with that
 written license.
  
 The following legend is applicable only to US Government
 contracts under FAR:
  
                    RESTRICTED RIGHTS LEGEND
  
 Use, reproduction and disclosure by the US Government is
 subject to restrictions as set forth in subparagraphs (a)
 and (c) of the Commercial Computer Software - Restricted
 Rights clause in FAR 52.227-19.
  
 Gaussian, Inc.
 340 Quinnipiac St., Bldg. 40, Wallingford CT 06492
  
  
 ---------------------------------------------------------------
 Warning -- This program may not be used in any manner that
 competes with the business of Gaussian, Inc. or will provide
 assistance to any competitor of Gaussian, Inc.  The licensee
 of this program is prohibited from giving any competitor of
 Gaussian, Inc. access to this program.  By using this program,
 the user acknowledges that Gaussian, Inc. is engaged in the
 business of creating and licensing software in the field of
 computational chemistry and represents and warrants to the
 licensee that it is not a competitor of Gaussian, Inc. and that
 it will not use this program in any manner prohibited above.
 ---------------------------------------------------------------
  

 Cite this work as:
 Gaussian 16, Revision A.03,
 M. J. Frisch, G. W. Trucks, H. B. Schlegel, G. E. Scuseria, 
 M. A. Robb, J. R. Cheeseman, G. Scalmani, V. Barone, 
 G. A. Petersson, H. Nakatsuji, X. Li, M. Caricato, A. V. Marenich, 
 J. Bloino, B. G. Janesko, R. Gomperts, B. Mennucci, H. P. Hratchian, 
 J. V. Ortiz, A. F. Izmaylov, J. L. Sonnenberg, D. Williams-Young, 
 F. Ding, F. Lipparini, F. Egidi, J. Goings, B. Peng, A. Petrone, 
 T. Henderson, D. Ranasinghe, V. G. Zakrzewski, J. Gao, N. Rega, 
 G. Zheng, W. Liang, M. Hada, M. Ehara, K. Toyota, R. Fukuda, 
 J. Hasegawa, M. Ishida, T. Nakajima, Y. Honda, O. Kitao, H. Nakai, 
 T. Vreven, K. Throssell, J. A. Montgomery, Jr., J. E. Peralta, 
 F. Ogliaro, M. J. Bearpark, J. J. Heyd, E. N. Brothers, K. N. Kudin, 
 V. N. Staroverov, T. A. Keith, R. Kobayashi, J. Normand, 
 K. Raghavachari, A. P. Rendell, J. C. Burant, S. S. Iyengar, 
 J. Tomasi, M. Cossi, J. M. Millam, M. Klene, C. Adamo, R. Cammi, 
 J. W. Ochterski, R. L. Martin, K. Morokuma, O. Farkas, 
 J. B. Foresman, and D. J. Fox, Gaussian, Inc., Wallingford CT, 2016.
 
 ******************************************
 Gaussian 16:  ES64L-G16RevA.03 25-Dec-2016
                15-Apr-2019 
 ******************************************
 ------------------------------------------
 #B3LYP/6-31+G(d,p) OPT Freq=hpmodes Nosymm
 ------------------------------------------
 1/18=20,19=15,26=3,38=1/1,3;
 2/9=110,12=2,15=1,17=6,18=5,40=1/2;
 3/5=1,6=6,7=111,11=2,25=1,30=1,71=1,74=-5/1,2,3;
 4//1;
 5/5=2,38=5/2;
 6/7=2,8=2,9=2,10=2,28=1/1;
 7/30=1/1,2,3,16;
 1/18=20,19=15,26=3/3(2);
 2/9=110,15=1/2;
 99//99;
 2/9=110,15=1/2;
 3/5=1,6=6,7=111,11=2,25=1,30=1,71=1,74=-5/1,2,3;
 4/5=5,16=3,69=1/1;
 5/5=2,38=5/2;
 7/30=1/1,2,3,16;
 1/18=20,19=15,26=3/3(-5);
 2/9=110,15=1/2;
 6/7=2,8=2,9=2,10=2,19=2,28=1/1;
 99/9=1/99;
 ----------------------------------------------------------------------
 the last point of TS2 reverse direction (./TS2_IRC/CalcFC_LQA_Reverse_
 2.log) in its IRC calculation
 ----------------------------------------------------------------------
 Symbolic Z-matrix:
 Charge =  0 Multiplicity = 1
 C                     0.7681    0.58192  -1.50474 
 C                     0.97714  -0.82351   0.4056 
 C                    -0.02951  -0.74871   1.54379 
 C                    -1.04797   0.34726   1.12077 
 C                    -0.34372   1.65263   0.61058 
 C                    -0.06606   1.74597  -0.9146 
 H                     1.83529   0.72454  -1.32549 
 H                     0.61991   0.5091   -2.58769 
 H                    -1.65234   0.61313   1.99542 
 H                    -0.98216   2.50552   0.87007 
 H                     0.59172   1.79593   1.16694 
 H                    -1.02516   1.80762  -1.4433 
 H                     0.44747   2.69278  -1.12286 
 H                     0.51931  -0.49521   2.45392 
 O                     2.18551  -0.778     0.57742 
 C                    -1.94319  -0.27303   0.03714 
 H                    -2.65382  -0.97095   0.49565 
 H                    -2.53705   0.49375  -0.47135 
 C                    -1.03171  -1.04757  -0.96398 
 N                     0.39602  -0.69854  -0.87168 
 H                    -1.11419  -2.12414  -0.78537 
 H                    -1.34059  -0.88351  -2.00015 
 H                    -0.54651  -1.70117   1.718 
 

 GradGradGradGradGradGradGradGradGradGradGradGradGradGradGradGradGradGrad
 Berny optimization.
 Initialization pass.
                           ----------------------------
                           !    Initial Parameters    !
                           ! (Angstroms and Degrees)  !
 --------------------------                            --------------------------
 ! Name  Definition              Value          Derivative Info.                !
 --------------------------------------------------------------------------------
 ! R1    R(1,6)                  1.5489         estimate D2E/DX2                !
 ! R2    R(1,7)                  1.0915         estimate D2E/DX2                !
 ! R3    R(1,8)                  1.0955         estimate D2E/DX2                !
 ! R4    R(1,20)                 1.4761         estimate D2E/DX2                !
 ! R5    R(2,3)                  1.5213         estimate D2E/DX2                !
 ! R6    R(2,15)                 1.2214         estimate D2E/DX2                !
 ! R7    R(2,20)                 1.4088         estimate D2E/DX2                !
 ! R8    R(3,4)                  1.5548         estimate D2E/DX2                !
 ! R9    R(3,14)                 1.0926         estimate D2E/DX2                !
 ! R10   R(3,23)                 1.0976         estimate D2E/DX2                !
 ! R11   R(4,5)                  1.5685         estimate D2E/DX2                !
 ! R12   R(4,9)                  1.0959         estimate D2E/DX2                !
 ! R13   R(4,16)                 1.5364         estimate D2E/DX2                !
 ! R14   R(5,6)                  1.5531         estimate D2E/DX2                !
 ! R15   R(5,10)                 1.0965         estimate D2E/DX2                !
 ! R16   R(5,11)                 1.0978         estimate D2E/DX2                !
 ! R17   R(6,12)                 1.0969         estimate D2E/DX2                !
 ! R18   R(6,13)                 1.0971         estimate D2E/DX2                !
 ! R19   R(16,17)                1.0965         estimate D2E/DX2                !
 ! R20   R(16,18)                1.0951         estimate D2E/DX2                !
 ! R21   R(16,19)                1.5598         estimate D2E/DX2                !
 ! R22   R(19,20)                1.4727         estimate D2E/DX2                !
 ! R23   R(19,21)                1.0944         estimate D2E/DX2                !
 ! R24   R(19,22)                1.0936         estimate D2E/DX2                !
 ! A1    A(6,1,7)              111.4562         estimate D2E/DX2                !
 ! A2    A(6,1,8)              110.7177         estimate D2E/DX2                !
 ! A3    A(6,1,20)             110.6573         estimate D2E/DX2                !
 ! A4    A(7,1,8)              107.6558         estimate D2E/DX2                !
 ! A5    A(7,1,20)             106.8204         estimate D2E/DX2                !
 ! A6    A(8,1,20)             109.4031         estimate D2E/DX2                !
 ! A7    A(3,2,15)             123.2005         estimate D2E/DX2                !
 ! A8    A(3,2,20)             113.6413         estimate D2E/DX2                !
 ! A9    A(15,2,20)            122.1629         estimate D2E/DX2                !
 ! A10   A(2,3,4)              105.3395         estimate D2E/DX2                !
 ! A11   A(2,3,14)             107.5925         estimate D2E/DX2                !
 ! A12   A(2,3,23)             112.8145         estimate D2E/DX2                !
 ! A13   A(4,3,14)             113.0865         estimate D2E/DX2                !
 ! A14   A(4,3,23)             110.2617         estimate D2E/DX2                !
 ! A15   A(14,3,23)            107.801          estimate D2E/DX2                !
 ! A16   A(3,4,5)              112.3974         estimate D2E/DX2                !
 ! A17   A(3,4,9)              108.3673         estimate D2E/DX2                !
 ! A18   A(3,4,16)             106.7975         estimate D2E/DX2                !
 ! A19   A(5,4,9)              107.7773         estimate D2E/DX2                !
 ! A20   A(5,4,16)             111.6053         estimate D2E/DX2                !
 ! A21   A(9,4,16)             109.8486         estimate D2E/DX2                !
 ! A22   A(4,5,6)              116.7254         estimate D2E/DX2                !
 ! A23   A(4,5,10)             107.9943         estimate D2E/DX2                !
 ! A24   A(4,5,11)             109.0495         estimate D2E/DX2                !
 ! A25   A(6,5,10)             106.8426         estimate D2E/DX2                !
 ! A26   A(6,5,11)             109.7262         estimate D2E/DX2                !
 ! A27   A(10,5,11)            105.9426         estimate D2E/DX2                !
 ! A28   A(1,6,5)              115.1686         estimate D2E/DX2                !
 ! A29   A(1,6,12)             109.2377         estimate D2E/DX2                !
 ! A30   A(1,6,13)             108.9158         estimate D2E/DX2                !
 ! A31   A(5,6,12)             108.6873         estimate D2E/DX2                !
 ! A32   A(5,6,13)             108.7832         estimate D2E/DX2                !
 ! A33   A(12,6,13)            105.6214         estimate D2E/DX2                !
 ! A34   A(4,16,17)            109.8569         estimate D2E/DX2                !
 ! A35   A(4,16,18)            111.1492         estimate D2E/DX2                !
 ! A36   A(4,16,19)            108.2208         estimate D2E/DX2                !
 ! A37   A(17,16,18)           106.7613         estimate D2E/DX2                !
 ! A38   A(17,16,19)           109.3324         estimate D2E/DX2                !
 ! A39   A(18,16,19)           111.5044         estimate D2E/DX2                !
 ! A40   A(16,19,20)           114.1176         estimate D2E/DX2                !
 ! A41   A(16,19,21)           109.8576         estimate D2E/DX2                !
 ! A42   A(16,19,22)           111.6281         estimate D2E/DX2                !
 ! A43   A(20,19,21)           107.2167         estimate D2E/DX2                !
 ! A44   A(20,19,22)           107.3169         estimate D2E/DX2                !
 ! A45   A(21,19,22)           106.3149         estimate D2E/DX2                !
 ! A46   A(1,20,2)             111.2117         estimate D2E/DX2                !
 ! A47   A(1,20,19)            115.03           estimate D2E/DX2                !
 ! A48   A(2,20,19)            115.8299         estimate D2E/DX2                !
 ! D1    D(7,1,6,5)            -80.8334         estimate D2E/DX2                !
 ! D2    D(7,1,6,12)           156.5556         estimate D2E/DX2                !
 ! D3    D(7,1,6,13)            41.653          estimate D2E/DX2                !
 ! D4    D(8,1,6,5)            159.3606         estimate D2E/DX2                !
 ! D5    D(8,1,6,12)            36.7497         estimate D2E/DX2                !
 ! D6    D(8,1,6,13)           -78.1529         estimate D2E/DX2                !
 ! D7    D(20,1,6,5)            37.8821         estimate D2E/DX2                !
 ! D8    D(20,1,6,12)          -84.7289         estimate D2E/DX2                !
 ! D9    D(20,1,6,13)          160.3686         estimate D2E/DX2                !
 ! D10   D(6,1,20,2)           -77.805          estimate D2E/DX2                !
 ! D11   D(6,1,20,19)           56.3843         estimate D2E/DX2                !
 ! D12   D(7,1,20,2)            43.6864         estimate D2E/DX2                !
 ! D13   D(7,1,20,19)          177.8757         estimate D2E/DX2                !
 ! D14   D(8,1,20,2)           159.9442         estimate D2E/DX2                !
 ! D15   D(8,1,20,19)          -65.8665         estimate D2E/DX2                !
 ! D16   D(15,2,3,4)           129.6792         estimate D2E/DX2                !
 ! D17   D(15,2,3,14)            8.7798         estimate D2E/DX2                !
 ! D18   D(15,2,3,23)         -109.9914         estimate D2E/DX2                !
 ! D19   D(20,2,3,4)           -39.1109         estimate D2E/DX2                !
 ! D20   D(20,2,3,14)         -160.0103         estimate D2E/DX2                !
 ! D21   D(20,2,3,23)           81.2185         estimate D2E/DX2                !
 ! D22   D(3,2,20,1)           110.5605         estimate D2E/DX2                !
 ! D23   D(3,2,20,19)          -23.2349         estimate D2E/DX2                !
 ! D24   D(15,2,20,1)          -58.3607         estimate D2E/DX2                !
 ! D25   D(15,2,20,19)         167.8439         estimate D2E/DX2                !
 ! D26   D(2,3,4,5)            -47.6782         estimate D2E/DX2                !
 ! D27   D(2,3,4,9)           -166.6767         estimate D2E/DX2                !
 ! D28   D(2,3,4,16)            75.0333         estimate D2E/DX2                !
 ! D29   D(14,3,4,5)            69.5555         estimate D2E/DX2                !
 ! D30   D(14,3,4,9)           -49.443          estimate D2E/DX2                !
 ! D31   D(14,3,4,16)         -167.733          estimate D2E/DX2                !
 ! D32   D(23,3,4,5)          -169.6739         estimate D2E/DX2                !
 ! D33   D(23,3,4,9)            71.3276         estimate D2E/DX2                !
 ! D34   D(23,3,4,16)          -46.9624         estimate D2E/DX2                !
 ! D35   D(3,4,5,6)             91.4639         estimate D2E/DX2                !
 ! D36   D(3,4,5,10)          -148.2296         estimate D2E/DX2                !
 ! D37   D(3,4,5,11)           -33.5409         estimate D2E/DX2                !
 ! D38   D(9,4,5,6)           -149.1927         estimate D2E/DX2                !
 ! D39   D(9,4,5,10)           -28.8862         estimate D2E/DX2                !
 ! D40   D(9,4,5,11)            85.8025         estimate D2E/DX2                !
 ! D41   D(16,4,5,6)           -28.4965         estimate D2E/DX2                !
 ! D42   D(16,4,5,10)           91.81           estimate D2E/DX2                !
 ! D43   D(16,4,5,11)         -153.5013         estimate D2E/DX2                !
 ! D44   D(3,4,16,17)           74.8006         estimate D2E/DX2                !
 ! D45   D(3,4,16,18)         -167.2644         estimate D2E/DX2                !
 ! D46   D(3,4,16,19)          -44.503          estimate D2E/DX2                !
 ! D47   D(5,4,16,17)         -161.9942         estimate D2E/DX2                !
 ! D48   D(5,4,16,18)          -44.0593         estimate D2E/DX2                !
 ! D49   D(5,4,16,19)           78.7021         estimate D2E/DX2                !
 ! D50   D(9,4,16,17)          -42.5161         estimate D2E/DX2                !
 ! D51   D(9,4,16,18)           75.4188         estimate D2E/DX2                !
 ! D52   D(9,4,16,19)         -161.8198         estimate D2E/DX2                !
 ! D53   D(4,5,6,1)            -56.0913         estimate D2E/DX2                !
 ! D54   D(4,5,6,12)            66.8137         estimate D2E/DX2                !
 ! D55   D(4,5,6,13)          -178.6487         estimate D2E/DX2                !
 ! D56   D(10,5,6,1)          -177.0084         estimate D2E/DX2                !
 ! D57   D(10,5,6,12)          -54.1035         estimate D2E/DX2                !
 ! D58   D(10,5,6,13)           60.4341         estimate D2E/DX2                !
 ! D59   D(11,5,6,1)            68.5714         estimate D2E/DX2                !
 ! D60   D(11,5,6,12)         -168.5237         estimate D2E/DX2                !
 ! D61   D(11,5,6,13)          -53.9861         estimate D2E/DX2                !
 ! D62   D(4,16,19,20)         -16.1897         estimate D2E/DX2                !
 ! D63   D(4,16,19,21)         104.2401         estimate D2E/DX2                !
 ! D64   D(4,16,19,22)        -138.0825         estimate D2E/DX2                !
 ! D65   D(17,16,19,20)       -135.8239         estimate D2E/DX2                !
 ! D66   D(17,16,19,21)        -15.3941         estimate D2E/DX2                !
 ! D67   D(17,16,19,22)        102.2834         estimate D2E/DX2                !
 ! D68   D(18,16,19,20)        106.3553         estimate D2E/DX2                !
 ! D69   D(18,16,19,21)       -133.215          estimate D2E/DX2                !
 ! D70   D(18,16,19,22)        -15.5375         estimate D2E/DX2                !
 ! D71   D(16,19,20,1)         -77.3525         estimate D2E/DX2                !
 ! D72   D(16,19,20,2)          54.6891         estimate D2E/DX2                !
 ! D73   D(21,19,20,1)         160.7531         estimate D2E/DX2                !
 ! D74   D(21,19,20,2)         -67.2052         estimate D2E/DX2                !
 ! D75   D(22,19,20,1)          46.8826         estimate D2E/DX2                !
 ! D76   D(22,19,20,2)         178.9242         estimate D2E/DX2                !
 --------------------------------------------------------------------------------
 Trust Radius=3.00D-01 FncErr=1.00D-07 GrdErr=1.00D-06 EigMax=2.50D+02 EigMin=1.00D-04
 Number of steps in this run=    138 maximum allowed number of steps=    138.
 GradGradGradGradGradGradGradGradGradGradGradGradGradGradGradGradGradGrad

                          Input orientation:                          
 ---------------------------------------------------------------------
 Center     Atomic      Atomic             Coordinates (Angstroms)
 Number     Number       Type             X           Y           Z
 ---------------------------------------------------------------------
      1          6           0        0.768097    0.581924   -1.504739
      2          6           0        0.977136   -0.823509    0.405604
      3          6           0       -0.029509   -0.748714    1.543792
      4          6           0       -1.047970    0.347262    1.120765
      5          6           0       -0.343718    1.652630    0.610580
      6          6           0       -0.066064    1.745968   -0.914597
      7          1           0        1.835285    0.724542   -1.325491
      8          1           0        0.619905    0.509096   -2.587691
      9          1           0       -1.652341    0.613126    1.995423
     10          1           0       -0.982162    2.505517    0.870065
     11          1           0        0.591715    1.795931    1.166941
     12          1           0       -1.025161    1.807620   -1.443298
     13          1           0        0.447469    2.692784   -1.122864
     14          1           0        0.519308   -0.495214    2.453918
     15          8           0        2.185508   -0.777997    0.577420
     16          6           0       -1.943188   -0.273033    0.037136
     17          1           0       -2.653824   -0.970949    0.495653
     18          1           0       -2.537050    0.493747   -0.471353
     19          6           0       -1.031708   -1.047571   -0.963983
     20          7           0        0.396023   -0.698540   -0.871677
     21          1           0       -1.114194   -2.124141   -0.785373
     22          1           0       -1.340589   -0.883513   -2.000155
     23          1           0       -0.546514   -1.701165    1.718000
 ---------------------------------------------------------------------
                    Distance matrix (angstroms):
                    1          2          3          4          5
     1  C    0.000000
     2  C    2.380830   0.000000
     3  C    3.420572   1.521315   0.000000
     4  C    3.201006   2.446061   1.554792   0.000000
     5  C    2.618610   2.813883   2.595393   1.568517   0.000000
     6  C    1.548900   3.071386   3.502635   2.657671   1.553051
     7  H    1.091494   2.475797   3.725684   3.799956   3.059048
     8  H    1.095468   3.295947   4.367262   4.069477   3.530606
     9  H    4.255658   3.391990   2.166140   1.095890   2.170450
    10  H    3.521833   3.890628   3.457091   2.173763   1.096522
    11  H    2.939864   2.754932   2.646347   2.188456   1.097774
    12  H    2.172989   3.788202   4.055721   2.950862   2.169516
    13  H    2.168954   3.870540   4.379780   3.573749   2.170881
    14  H    4.110120   2.124376   1.092608   2.223381   2.959044
    15  O    2.862486   1.221374   2.416823   3.466527   3.507995
    16  C    3.234099   2.994509   2.481623   1.536370   2.568136
    17  H    4.257056   3.635068   2.834610   2.169611   3.497566
    18  H    3.464052   3.854052   3.448519   2.184870   2.706343
    19  C    2.487362   2.441603   2.717104   2.508385   3.200572
    20  N    1.476074   1.408814   2.453179   2.673695   2.876161
    21  H    3.373914   2.735641   2.914335   3.121791   4.099551
    22  H    2.615244   3.341126   3.781093   3.367577   3.773819
    23  H    4.162541   2.194122   1.097636   2.191849   3.537718
                    6          7          8          9         10
     6  C    0.000000
     7  H    2.197106   0.000000
     8  H    2.190810   1.765422   0.000000
     9  H    3.502545   4.817096   5.116528   0.000000
    10  H    2.145033   3.991284   4.302138   2.301459   0.000000
    11  H    2.183568   2.984386   3.969131   2.668557   1.751781
    12  H    1.096901   3.060897   2.387895   3.693910   2.416725
    13  H    1.097065   2.416830   2.635137   4.296265   2.459813
    14  H    4.088086   4.183722   5.141651   2.480866   3.710443
    15  O    3.696768   2.449765   3.758410   4.321463   4.571787
    16  C    2.916463   4.138691   3.751118   2.169045   3.055762
    17  H    4.008359   5.132578   4.734432   2.400327   3.875623
    18  H    2.805405   4.460956   3.800722   2.623346   2.874769
    19  C    2.956141   3.389797   2.790603   3.449809   3.998827
    20  N    2.488169   2.074267   2.110263   3.759857   3.898595
    21  H    4.011611   4.135958   3.631720   3.938916   4.918500
    22  H    3.117214   3.623146   2.475499   4.278056   4.455576
    23  H    4.363958   4.562878   4.978430   2.579876   4.313346
                   11         12         13         14         15
    11  H    0.000000
    12  H    3.070468   0.000000
    13  H    2.463404   1.747808   0.000000
    14  H    2.628859   4.782962   4.791854   0.000000
    15  O    3.084285   4.590982   4.237696   2.525358   0.000000
    16  C    3.461619   2.713591   3.982074   3.457468   4.194404
    17  H    4.317381   3.759324   5.065625   3.758975   4.843867
    18  H    3.764155   2.226375   3.763985   4.344718   5.001981
    19  C    3.906641   2.895151   4.025353   3.793784   3.577579
    20  N    3.227483   2.937236   3.401003   3.334085   2.304008
    21  H    4.699853   3.987422   5.074984   3.976775   3.815408
    22  H    4.576430   2.766185   4.093494   4.842392   4.369026
    23  H    3.718724   4.747050   5.325908   1.769709   3.101146
                   16         17         18         19         20
    16  C    0.000000
    17  H    1.096507   0.000000
    18  H    1.095073   1.758997   0.000000
    19  C    1.559790   2.183499   2.210068   0.000000
    20  N    2.545369   3.353411   3.191352   1.472671   0.000000
    21  H    2.188687   2.311134   2.996075   1.094399   2.078591
    22  H    2.210513   2.821576   2.380252   1.093606   2.079302
    23  H    2.610663   2.543247   3.684174   2.802790   2.932586
                   21         22         23
    21  H    0.000000
    22  H    1.751031   0.000000
    23  H    2.601547   3.888931   0.000000
 Symmetry turned off by external request.
 Stoichiometry    C8H13NO
 Framework group  C1[X(C8H13NO)]
 Deg. of freedom    63
 Full point group                 C1      NOp   1
 Rotational constants (GHZ):           1.7630514           1.5286055           1.3614069
 Standard basis: 6-31+G(d,p) (6D, 7F)
   255 basis functions,   411 primitive gaussians,   255 cartesian basis functions
    38 alpha electrons       38 beta electrons
       nuclear repulsion energy       585.6552190292 Hartrees.
 NAtoms=   23 NActive=   23 NUniq=   23 SFac= 1.00D+00 NAtFMM=   60 NAOKFM=F Big=F
 Integral buffers will be    131072 words long.
 Raffenetti 2 integral format.
 Two-electron integral symmetry is turned off.
 One-electron integrals computed using PRISM.
 NBasis=   255 RedAO= T EigKep=  1.08D-05  NBF=   255
 NBsUse=   255 1.00D-06 EigRej= -1.00D+00 NBFU=   255
 ExpMin= 4.38D-02 ExpMax= 5.48D+03 ExpMxC= 8.25D+02 IAcc=3 IRadAn=         5 AccDes= 0.00D+00
 Harris functional with IExCor=  402 and IRadAn=       5 diagonalized for initial guess.
 HarFok:  IExCor=  402 AccDes= 0.00D+00 IRadAn=         5 IDoV= 1 UseB2=F ITyADJ=14
 ICtDFT=  3500011 ScaDFX=  1.000000  1.000000  1.000000  1.000000
 FoFCou: FMM=F IPFlag=           0 FMFlag=      100000 FMFlg1=           0
         NFxFlg=           0 DoJE=T BraDBF=F KetDBF=T FulRan=T
         wScrn=  0.000000 ICntrl=       500 IOpCl=  0 I1Cent=   200000004 NGrid=           0
         NMat0=    1 NMatS0=      1 NMatT0=    0 NMatD0=    1 NMtDS0=    0 NMtDT0=    0
 Symmetry not used in FoFCou.
 Requested convergence on RMS density matrix=1.00D-08 within 128 cycles.
 Requested convergence on MAX density matrix=1.00D-06.
 Requested convergence on             energy=1.00D-06.
 No special actions if energy rises.
 SCF Done:  E(RB3LYP) =  -442.680548814     A.U. after   13 cycles
            NFock= 13  Conv=0.58D-08     -V/T= 2.0097

 **********************************************************************

            Population analysis using the SCF density.

 **********************************************************************

 Alpha  occ. eigenvalues --  -19.13152 -14.35233 -10.28985 -10.22789 -10.22231
 Alpha  occ. eigenvalues --  -10.21007 -10.19900 -10.19829 -10.19730 -10.19606
 Alpha  occ. eigenvalues --   -1.04318  -0.94063  -0.82209  -0.78592  -0.74848
 Alpha  occ. eigenvalues --   -0.68255  -0.66640  -0.62440  -0.56191  -0.52687
 Alpha  occ. eigenvalues --   -0.51332  -0.49030  -0.47926  -0.45042  -0.43473
 Alpha  occ. eigenvalues --   -0.42510  -0.41864  -0.41419  -0.40381  -0.39702
 Alpha  occ. eigenvalues --   -0.36242  -0.35632  -0.34551  -0.33575  -0.33022
 Alpha  occ. eigenvalues --   -0.32359  -0.25767  -0.23788
 Alpha virt. eigenvalues --   -0.01229  -0.00650   0.00984   0.01373   0.01929
 Alpha virt. eigenvalues --    0.03607   0.03826   0.04090   0.05162   0.05395
 Alpha virt. eigenvalues --    0.07015   0.07682   0.08030   0.08555   0.09147
 Alpha virt. eigenvalues --    0.09768   0.09810   0.11363   0.11847   0.13171
 Alpha virt. eigenvalues --    0.13378   0.13595   0.13926   0.14289   0.14572
 Alpha virt. eigenvalues --    0.15294   0.16143   0.17465   0.17517   0.18105
 Alpha virt. eigenvalues --    0.18554   0.18985   0.19725   0.19964   0.20906
 Alpha virt. eigenvalues --    0.21509   0.22309   0.22469   0.23099   0.23944
 Alpha virt. eigenvalues --    0.24362   0.25092   0.25497   0.26795   0.27809
 Alpha virt. eigenvalues --    0.29017   0.30087   0.30823   0.30963   0.31684
 Alpha virt. eigenvalues --    0.33043   0.33360   0.34728   0.35617   0.37060
 Alpha virt. eigenvalues --    0.37297   0.37839   0.38860   0.39598   0.40346
 Alpha virt. eigenvalues --    0.40860   0.43436   0.45911   0.48591   0.51706
 Alpha virt. eigenvalues --    0.59197   0.62428   0.63252   0.64460   0.65423
 Alpha virt. eigenvalues --    0.66295   0.67352   0.69563   0.71218   0.73086
 Alpha virt. eigenvalues --    0.74760   0.75821   0.77431   0.79281   0.79922
 Alpha virt. eigenvalues --    0.81704   0.83229   0.84546   0.85594   0.89074
 Alpha virt. eigenvalues --    0.90264   0.91723   0.93665   0.95520   0.97155
 Alpha virt. eigenvalues --    0.98880   1.00265   1.01345   1.03987   1.04399
 Alpha virt. eigenvalues --    1.05412   1.07334   1.09427   1.09999   1.11585
 Alpha virt. eigenvalues --    1.13309   1.15599   1.16683   1.17523   1.19397
 Alpha virt. eigenvalues --    1.21983   1.26068   1.29329   1.34528   1.34724
 Alpha virt. eigenvalues --    1.37288   1.39458   1.42072   1.45004   1.48092
 Alpha virt. eigenvalues --    1.49351   1.51787   1.54739   1.55912   1.58878
 Alpha virt. eigenvalues --    1.63510   1.67833   1.70388   1.71773   1.75625
 Alpha virt. eigenvalues --    1.76434   1.77409   1.78845   1.81589   1.81946
 Alpha virt. eigenvalues --    1.83737   1.85632   1.87079   1.88582   1.90309
 Alpha virt. eigenvalues --    1.91415   1.94435   1.96608   1.97602   2.00331
 Alpha virt. eigenvalues --    2.02087   2.05520   2.07261   2.09604   2.10239
 Alpha virt. eigenvalues --    2.13096   2.14450   2.16074   2.19321   2.21395
 Alpha virt. eigenvalues --    2.23659   2.25790   2.26947   2.30648   2.32933
 Alpha virt. eigenvalues --    2.33797   2.34273   2.37448   2.37575   2.40129
 Alpha virt. eigenvalues --    2.41413   2.45021   2.45152   2.46596   2.49529
 Alpha virt. eigenvalues --    2.49987   2.52839   2.54183   2.57485   2.58277
 Alpha virt. eigenvalues --    2.60549   2.61677   2.63704   2.65845   2.66751
 Alpha virt. eigenvalues --    2.68104   2.70819   2.72095   2.74008   2.78198
 Alpha virt. eigenvalues --    2.79480   2.80972   2.83269   2.84508   2.86259
 Alpha virt. eigenvalues --    2.87654   2.88739   2.91176   2.95065   2.96988
 Alpha virt. eigenvalues --    3.01522   3.07912   3.11613   3.26191   3.29423
 Alpha virt. eigenvalues --    3.31469   3.33440   3.35599   3.36469   3.38228
 Alpha virt. eigenvalues --    3.44038   3.49030   3.50340   3.52492   3.54110
 Alpha virt. eigenvalues --    3.56571   3.57962   4.26184   4.40392   4.44284
 Alpha virt. eigenvalues --    4.53437   4.59946   4.64776   4.75651   4.83792
 Alpha virt. eigenvalues --    4.85512   4.93136
          Condensed to atoms (all electrons):
               1          2          3          4          5          6
     1  C    6.055820  -0.567231   0.179926  -0.193180   0.160134  -0.102119
     2  C   -0.567231   6.168709  -0.460122   0.268152  -0.171185   0.249066
     3  C    0.179926  -0.460122   6.351976  -0.215235   0.049458  -0.125307
     4  C   -0.193180   0.268152  -0.215235   6.319695  -0.351127   0.098108
     5  C    0.160134  -0.171185   0.049458  -0.351127   5.946282   0.018372
     6  C   -0.102119   0.249066  -0.125307   0.098108   0.018372   5.691726
     7  H    0.467423   0.004127  -0.005101  -0.003316  -0.013137  -0.054161
     8  H    0.395848   0.004351  -0.005080   0.008824   0.011613  -0.086345
     9  H   -0.006734  -0.004377   0.003613   0.266123   0.015387  -0.004178
    10  H    0.035494  -0.028476   0.033522  -0.069691   0.432897  -0.069749
    11  H    0.010551  -0.004879  -0.022980  -0.047803   0.428340  -0.043448
    12  H   -0.061890   0.007653  -0.009595   0.027589  -0.105778   0.472854
    13  H   -0.049280   0.005472  -0.002212   0.048852  -0.085803   0.408243
    14  H    0.003942  -0.051342   0.413085  -0.036062  -0.010935   0.000800
    15  O   -0.108251   0.680424  -0.247175   0.061768  -0.040585   0.030837
    16  C    0.067624  -0.044272   0.045708  -0.129230   0.125357  -0.069539
    17  H    0.001042   0.011589  -0.003357  -0.033451  -0.007405   0.000851
    18  H    0.014884  -0.008819   0.009844  -0.076955   0.016579  -0.041509
    19  C   -0.263293  -0.066753   0.045638   0.000751  -0.102595   0.054298
    20  N    0.184248  -0.071848  -0.135458  -0.057670  -0.001174  -0.151144
    21  H    0.003356  -0.021475   0.016633  -0.016633  -0.002714  -0.008580
    22  H    0.005238   0.014414  -0.020532   0.045412  -0.010120  -0.000706
    23  H    0.005992  -0.045297   0.395099  -0.056824   0.022581  -0.007086
               7          8          9         10         11         12
     1  C    0.467423   0.395848  -0.006734   0.035494   0.010551  -0.061890
     2  C    0.004127   0.004351  -0.004377  -0.028476  -0.004879   0.007653
     3  C   -0.005101  -0.005080   0.003613   0.033522  -0.022980  -0.009595
     4  C   -0.003316   0.008824   0.266123  -0.069691  -0.047803   0.027589
     5  C   -0.013137   0.011613   0.015387   0.432897   0.428340  -0.105778
     6  C   -0.054161  -0.086345  -0.004178  -0.069749  -0.043448   0.472854
     7  H    0.521604  -0.025388   0.000002  -0.000064   0.001642   0.004658
     8  H   -0.025388   0.584117   0.000006  -0.000124  -0.000040  -0.006989
     9  H    0.000002   0.000006   0.584665  -0.008772   0.000546   0.000004
    10  H   -0.000064  -0.000124  -0.008772   0.575349  -0.028803  -0.005004
    11  H    0.001642  -0.000040   0.000546  -0.028803   0.555948   0.005000
    12  H    0.004658  -0.006989   0.000004  -0.005004   0.005000   0.586763
    13  H   -0.005196   0.002722  -0.000075  -0.002238  -0.004270  -0.031562
    14  H   -0.000008   0.000006  -0.003225   0.000115   0.001758  -0.000003
    15  O    0.002430   0.000613  -0.000643   0.000436   0.000036   0.000138
    16  C    0.001044  -0.010745   0.019651  -0.006542  -0.000915  -0.041397
    17  H    0.000008   0.000002  -0.005249  -0.000054  -0.000113   0.000131
    18  H   -0.000011   0.000095  -0.001245   0.001489   0.000069   0.001343
    19  C   -0.000509   0.019722   0.004078   0.002343   0.005898   0.037934
    20  N   -0.071490  -0.035285   0.008511  -0.002093  -0.016284  -0.019940
    21  H   -0.000161   0.000388  -0.000114   0.000002   0.000009   0.000046
    22  H    0.000281   0.003154  -0.000126   0.000012   0.000002   0.000344
    23  H   -0.000009   0.000010  -0.002856  -0.000135   0.000142   0.000004
              13         14         15         16         17         18
     1  C   -0.049280   0.003942  -0.108251   0.067624   0.001042   0.014884
     2  C    0.005472  -0.051342   0.680424  -0.044272   0.011589  -0.008819
     3  C   -0.002212   0.413085  -0.247175   0.045708  -0.003357   0.009844
     4  C    0.048852  -0.036062   0.061768  -0.129230  -0.033451  -0.076955
     5  C   -0.085803  -0.010935  -0.040585   0.125357  -0.007405   0.016579
     6  C    0.408243   0.000800   0.030837  -0.069539   0.000851  -0.041509
     7  H   -0.005196  -0.000008   0.002430   0.001044   0.000008  -0.000011
     8  H    0.002722   0.000006   0.000613  -0.010745   0.000002   0.000095
     9  H   -0.000075  -0.003225  -0.000643   0.019651  -0.005249  -0.001245
    10  H   -0.002238   0.000115   0.000436  -0.006542  -0.000054   0.001489
    11  H   -0.004270   0.001758   0.000036  -0.000915  -0.000113   0.000069
    12  H   -0.031562  -0.000003   0.000138  -0.041397   0.000131   0.001343
    13  H    0.572097   0.000001   0.000082  -0.007607  -0.000002   0.000147
    14  H    0.000001   0.524962  -0.005167   0.003644   0.000026  -0.000132
    15  O    0.000082  -0.005167   8.138409  -0.013433  -0.000008   0.000133
    16  C   -0.007607   0.003644  -0.013433   5.693167   0.414509   0.440862
    17  H   -0.000002   0.000026  -0.000008   0.414509   0.568351  -0.030936
    18  H    0.000147  -0.000132   0.000133   0.440862  -0.030936   0.571555
    19  C   -0.000658  -0.001827   0.030664   0.006733  -0.061929  -0.035351
    20  N    0.009024   0.012176  -0.094254  -0.026331   0.003966  -0.001688
    21  H    0.000009   0.000053   0.001113  -0.050960  -0.007753   0.004374
    22  H    0.000024   0.000004  -0.000298  -0.099345   0.003298  -0.007451
    23  H    0.000004  -0.023369   0.003104  -0.010408   0.002920   0.000214
              19         20         21         22         23
     1  C   -0.263293   0.184248   0.003356   0.005238   0.005992
     2  C   -0.066753  -0.071848  -0.021475   0.014414  -0.045297
     3  C    0.045638  -0.135458   0.016633  -0.020532   0.395099
     4  C    0.000751  -0.057670  -0.016633   0.045412  -0.056824
     5  C   -0.102595  -0.001174  -0.002714  -0.010120   0.022581
     6  C    0.054298  -0.151144  -0.008580  -0.000706  -0.007086
     7  H   -0.000509  -0.071490  -0.000161   0.000281  -0.000009
     8  H    0.019722  -0.035285   0.000388   0.003154   0.000010
     9  H    0.004078   0.008511  -0.000114  -0.000126  -0.002856
    10  H    0.002343  -0.002093   0.000002   0.000012  -0.000135
    11  H    0.005898  -0.016284   0.000009   0.000002   0.000142
    12  H    0.037934  -0.019940   0.000046   0.000344   0.000004
    13  H   -0.000658   0.009024   0.000009   0.000024   0.000004
    14  H   -0.001827   0.012176   0.000053   0.000004  -0.023369
    15  O    0.030664  -0.094254   0.001113  -0.000298   0.003104
    16  C    0.006733  -0.026331  -0.050960  -0.099345  -0.010408
    17  H   -0.061929   0.003966  -0.007753   0.003298   0.002920
    18  H   -0.035351  -0.001688   0.004374  -0.007451   0.000214
    19  C    5.598115   0.112429   0.429539   0.437316  -0.008873
    20  N    0.112429   7.534863  -0.039148  -0.050928   0.013984
    21  H    0.429539  -0.039148   0.566774  -0.024532  -0.000155
    22  H    0.437316  -0.050928  -0.024532   0.560278   0.000163
    23  H   -0.008873   0.013984  -0.000155   0.000163   0.551184
 Mulliken charges:
               1
     1  C   -0.239543
     2  C    0.132120
     3  C   -0.292350
     4  C    0.141904
     5  C   -0.324440
     6  C   -0.261284
     7  H    0.175331
     8  H    0.138524
     9  H    0.135009
    10  H    0.140088
    11  H    0.159592
    12  H    0.137698
    13  H    0.142226
    14  H    0.171499
    15  O   -0.440372
    16  C   -0.307577
    17  H    0.143563
    18  H    0.142510
    19  C   -0.243669
    20  N   -0.104468
    21  H    0.149930
    22  H    0.144096
    23  H    0.159613
 Sum of Mulliken charges =  -0.00000
 Mulliken charges with hydrogens summed into heavy atoms:
               1
     1  C    0.074312
     2  C    0.132120
     3  C    0.038762
     4  C    0.276913
     5  C   -0.024760
     6  C    0.018640
    15  O   -0.440372
    16  C   -0.021504
    19  C    0.050356
    20  N   -0.104468
 Electronic spatial extent (au):  <R**2>=           1181.5206
 Charge=             -0.0000 electrons
 Dipole moment (field-independent basis, Debye):
    X=             -4.0447    Y=              1.2677    Z=             -0.4263  Tot=              4.2601
 Quadrupole moment (field-independent basis, Debye-Ang):
   XX=            -69.9728   YY=            -60.7079   ZZ=            -59.6640
   XY=              4.8066   XZ=             -1.8585   YZ=             -1.0535
 Traceless Quadrupole moment (field-independent basis, Debye-Ang):
   XX=             -6.5245   YY=              2.7404   ZZ=              3.7842
   XY=              4.8066   XZ=             -1.8585   YZ=             -1.0535
 Octapole moment (field-independent basis, Debye-Ang**2):
  XXX=             -6.8836  YYY=            -10.2456  ZZZ=              0.8248  XYY=              1.2451
  XXY=              5.9919  XXZ=             -6.2337  XZZ=              2.3263  YZZ=             -1.2870
  YYZ=              2.3189  XYZ=             -0.3200
 Hexadecapole moment (field-independent basis, Debye-Ang**3):
 XXXX=           -650.3925 YYYY=           -504.1705 ZZZZ=           -486.0013 XXXY=             42.4794
 XXXZ=             -8.2387 YYYX=             28.1473 YYYZ=             27.5070 ZZZX=             10.4404
 ZZZY=             29.7772 XXYY=           -186.7534 XXZZ=           -184.1990 YYZZ=           -172.8848
 XXYZ=             13.0927 YYXZ=              0.6193 ZZXY=             11.6436
 N-N= 5.856552190292D+02 E-N=-2.198810828318D+03  KE= 4.384460310325D+02
 Calling FoFJK, ICntrl=      2127 FMM=F ISym2X=0 I1Cent= 0 IOpClX= 0 NMat=1 NMatS=1 NMatT=0.
 -------------------------------------------------------------------
 Center     Atomic                   Forces (Hartrees/Bohr)
 Number     Number              X              Y              Z
 -------------------------------------------------------------------
      1        6           0.000030919    0.000006951   -0.000027680
      2        6           0.000069246   -0.000062506   -0.000126015
      3        6           0.000005600    0.000033788    0.000062744
      4        6          -0.000025777    0.000053085   -0.000006429
      5        6          -0.000067341    0.000017944   -0.000035383
      6        6          -0.000048603   -0.000069076    0.000024346
      7        1          -0.000029561    0.000009757    0.000012272
      8        1           0.000011260    0.000025693   -0.000036957
      9        1           0.000012651   -0.000005017   -0.000026667
     10        1          -0.000016685   -0.000026120   -0.000004819
     11        1           0.000046825    0.000007739    0.000022536
     12        1          -0.000001004   -0.000013923    0.000000921
     13        1           0.000048758    0.000085805    0.000019073
     14        1           0.000014742    0.000018591   -0.000023302
     15        8          -0.000070057    0.000008338    0.000006672
     16        6           0.000057889   -0.000006424    0.000006072
     17        1          -0.000023040   -0.000026290    0.000029500
     18        1          -0.000017783    0.000008232   -0.000007975
     19        6           0.000092224    0.000087142   -0.000033219
     20        7          -0.000089155   -0.000111337    0.000151818
     21        1           0.000026483    0.000001462   -0.000005159
     22        1          -0.000018978    0.000005576   -0.000020717
     23        1          -0.000008613   -0.000049411    0.000018370
 -------------------------------------------------------------------
 Cartesian Forces:  Max     0.000151818 RMS     0.000045704

 GradGradGradGradGradGradGradGradGradGradGradGradGradGradGradGradGradGrad
 Berny optimization.
 FormGI is forming the generalized inverse of G from B-inverse, IUseBI=4.
 Internal  Forces:  Max     0.000093380 RMS     0.000021400
 Search for a local minimum.
 Step number   1 out of a maximum of  138
 All quantities printed in internal units (Hartrees-Bohrs-Radians)
 Mixed Optimization -- En-DIIS/RFO-DIIS
 Second derivative matrix not updated -- first step.
 ITU=  0
     Eigenvalues ---    0.00414   0.00463   0.00771   0.00929   0.01151
     Eigenvalues ---    0.02134   0.02408   0.03010   0.03467   0.03696
     Eigenvalues ---    0.03757   0.04353   0.04603   0.04637   0.04734
     Eigenvalues ---    0.04843   0.05198   0.05498   0.05630   0.05991
     Eigenvalues ---    0.07038   0.07556   0.07999   0.08118   0.08434
     Eigenvalues ---    0.08577   0.08719   0.08953   0.09222   0.09293
     Eigenvalues ---    0.09639   0.09776   0.12164   0.12609   0.15430
     Eigenvalues ---    0.16991   0.18515   0.19729   0.24124   0.24571
     Eigenvalues ---    0.25249   0.25812   0.26543   0.27206   0.27543
     Eigenvalues ---    0.28903   0.33324   0.33929   0.33945   0.34009
     Eigenvalues ---    0.34027   0.34054   0.34070   0.34071   0.34141
     Eigenvalues ---    0.34188   0.34233   0.34309   0.34399   0.34513
     Eigenvalues ---    0.34641   0.41097   0.94777
 RFO step:  Lambda=-1.04536690D-06 EMin= 4.14417267D-03
 Linear search not attempted -- first point.
 Iteration  1 RMS(Cart)=  0.00124430 RMS(Int)=  0.00000080
 Iteration  2 RMS(Cart)=  0.00000100 RMS(Int)=  0.00000024
 Iteration  3 RMS(Cart)=  0.00000000 RMS(Int)=  0.00000024
 Variable       Old X    -DE/DX   Delta X   Delta X   Delta X     New X
                                 (Linear)    (Quad)   (Total)
    R1        2.92700   0.00002   0.00000   0.00005   0.00005   2.92705
    R2        2.06263  -0.00003   0.00000  -0.00007  -0.00007   2.06255
    R3        2.07013   0.00003   0.00000   0.00010   0.00010   2.07023
    R4        2.78938   0.00007   0.00000   0.00018   0.00018   2.78956
    R5        2.87487   0.00004   0.00000   0.00020   0.00020   2.87506
    R6        2.30806  -0.00007   0.00000  -0.00007  -0.00007   2.30799
    R7        2.66227  -0.00006   0.00000  -0.00016  -0.00016   2.66211
    R8        2.93813   0.00003   0.00000   0.00021   0.00021   2.93834
    R9        2.06473  -0.00001   0.00000  -0.00002  -0.00002   2.06471
   R10        2.07423   0.00005   0.00000   0.00015   0.00015   2.07438
   R11        2.96407  -0.00003   0.00000  -0.00010  -0.00010   2.96397
   R12        2.07093  -0.00003   0.00000  -0.00009  -0.00009   2.07085
   R13        2.90332  -0.00002   0.00000  -0.00007  -0.00007   2.90325
   R14        2.93484  -0.00004   0.00000  -0.00011  -0.00011   2.93473
   R15        2.07213  -0.00001   0.00000  -0.00004  -0.00004   2.07209
   R16        2.07449   0.00005   0.00000   0.00016   0.00016   2.07465
   R17        2.07284  -0.00000   0.00000  -0.00000  -0.00000   2.07284
   R18        2.07315   0.00009   0.00000   0.00027   0.00027   2.07343
   R19        2.07210   0.00004   0.00000   0.00013   0.00013   2.07223
   R20        2.06939   0.00002   0.00000   0.00006   0.00006   2.06945
   R21        2.94758   0.00002   0.00000  -0.00004  -0.00004   2.94754
   R22        2.78294  -0.00009   0.00000  -0.00032  -0.00032   2.78262
   R23        2.06811  -0.00000   0.00000  -0.00001  -0.00001   2.06810
   R24        2.06662   0.00003   0.00000   0.00007   0.00007   2.06669
    A1        1.94528  -0.00000   0.00000  -0.00014  -0.00013   1.94514
    A2        1.93239  -0.00001   0.00000  -0.00009  -0.00009   1.93230
    A3        1.93133  -0.00001   0.00000   0.00001   0.00000   1.93134
    A4        1.87895  -0.00000   0.00000  -0.00002  -0.00002   1.87893
    A5        1.86437   0.00000   0.00000  -0.00004  -0.00004   1.86433
    A6        1.90944   0.00003   0.00000   0.00029   0.00029   1.90973
    A7        2.15025  -0.00002   0.00000  -0.00038  -0.00038   2.14988
    A8        1.98342   0.00000   0.00000   0.00027   0.00027   1.98369
    A9        2.13214   0.00001   0.00000  -0.00024  -0.00024   2.13191
   A10        1.83852  -0.00001   0.00000   0.00044   0.00044   1.83896
   A11        1.87784   0.00001   0.00000  -0.00033  -0.00033   1.87751
   A12        1.96898  -0.00001   0.00000  -0.00003  -0.00003   1.96895
   A13        1.97373   0.00000   0.00000  -0.00016  -0.00016   1.97357
   A14        1.92443   0.00001   0.00000   0.00008   0.00008   1.92451
   A15        1.88148   0.00000   0.00000  -0.00001  -0.00001   1.88147
   A16        1.96170   0.00002   0.00000   0.00029   0.00029   1.96200
   A17        1.89137   0.00000   0.00000  -0.00017  -0.00017   1.89120
   A18        1.86397  -0.00001   0.00000   0.00020   0.00020   1.86417
   A19        1.88107  -0.00001   0.00000  -0.00026  -0.00026   1.88081
   A20        1.94788  -0.00001   0.00000   0.00014   0.00013   1.94801
   A21        1.91722   0.00001   0.00000  -0.00022  -0.00022   1.91701
   A22        2.03724   0.00001   0.00000   0.00020   0.00020   2.03744
   A23        1.88486  -0.00001   0.00000  -0.00021  -0.00021   1.88465
   A24        1.90327  -0.00000   0.00000   0.00000   0.00000   1.90327
   A25        1.86476   0.00001   0.00000  -0.00001  -0.00001   1.86474
   A26        1.91508  -0.00001   0.00000  -0.00009  -0.00009   1.91500
   A27        1.84905   0.00001   0.00000   0.00010   0.00010   1.84915
   A28        2.01007   0.00001   0.00000   0.00014   0.00014   2.01021
   A29        1.90656  -0.00002   0.00000  -0.00008  -0.00008   1.90648
   A30        1.90094   0.00002   0.00000   0.00008   0.00008   1.90102
   A31        1.89695   0.00001   0.00000   0.00005   0.00005   1.89700
   A32        1.89862  -0.00003   0.00000  -0.00035  -0.00035   1.89828
   A33        1.84344   0.00001   0.00000   0.00017   0.00017   1.84361
   A34        1.91736  -0.00000   0.00000  -0.00008  -0.00008   1.91728
   A35        1.93992  -0.00000   0.00000  -0.00008  -0.00008   1.93984
   A36        1.88881   0.00000   0.00000   0.00019   0.00019   1.88900
   A37        1.86334  -0.00000   0.00000  -0.00005  -0.00005   1.86329
   A38        1.90821   0.00001   0.00000   0.00009   0.00009   1.90830
   A39        1.94612  -0.00000   0.00000  -0.00007  -0.00007   1.94604
   A40        1.99173   0.00001   0.00000   0.00014   0.00014   1.99186
   A41        1.91738   0.00001   0.00000  -0.00006  -0.00006   1.91731
   A42        1.94828  -0.00001   0.00000   0.00005   0.00005   1.94833
   A43        1.87128  -0.00003   0.00000  -0.00040  -0.00040   1.87088
   A44        1.87303   0.00002   0.00000   0.00026   0.00026   1.87329
   A45        1.85555   0.00000   0.00000  -0.00000  -0.00000   1.85554
   A46        1.94101  -0.00001   0.00000  -0.00005  -0.00005   1.94096
   A47        2.00765  -0.00002   0.00000  -0.00000  -0.00000   2.00765
   A48        2.02161   0.00002   0.00000   0.00044   0.00044   2.02205
    D1       -1.41081   0.00001   0.00000   0.00080   0.00080  -1.41001
    D2        2.73241   0.00000   0.00000   0.00070   0.00070   2.73311
    D3        0.72698  -0.00001   0.00000   0.00050   0.00050   0.72748
    D4        2.78137   0.00002   0.00000   0.00097   0.00097   2.78234
    D5        0.64140   0.00001   0.00000   0.00087   0.00087   0.64228
    D6       -1.36403  -0.00000   0.00000   0.00068   0.00068  -1.36335
    D7        0.66117  -0.00000   0.00000   0.00066   0.00066   0.66183
    D8       -1.47880  -0.00000   0.00000   0.00057   0.00057  -1.47823
    D9        2.79896  -0.00002   0.00000   0.00037   0.00037   2.79933
   D10       -1.35795  -0.00002   0.00000  -0.00157  -0.00157  -1.35952
   D11        0.98409  -0.00001   0.00000  -0.00097  -0.00097   0.98313
   D12        0.76247  -0.00003   0.00000  -0.00175  -0.00175   0.76072
   D13        3.10452  -0.00001   0.00000  -0.00115  -0.00115   3.10337
   D14        2.79155  -0.00001   0.00000  -0.00165  -0.00165   2.78990
   D15       -1.14959   0.00000   0.00000  -0.00105  -0.00105  -1.15064
   D16        2.26333  -0.00000   0.00000   0.00051   0.00051   2.26384
   D17        0.15324  -0.00000   0.00000   0.00063   0.00063   0.15387
   D18       -1.91971   0.00000   0.00000   0.00088   0.00088  -1.91883
   D19       -0.68261   0.00002   0.00000   0.00244   0.00244  -0.68017
   D20       -2.79271   0.00002   0.00000   0.00256   0.00256  -2.79015
   D21        1.41753   0.00002   0.00000   0.00281   0.00281   1.42034
   D22        1.92964  -0.00002   0.00000  -0.00130  -0.00130   1.92834
   D23       -0.40553  -0.00001   0.00000  -0.00169  -0.00169  -0.40721
   D24       -1.01859   0.00000   0.00000   0.00062   0.00062  -1.01796
   D25        2.92943   0.00001   0.00000   0.00024   0.00024   2.92967
   D26       -0.83214  -0.00002   0.00000  -0.00162  -0.00162  -0.83376
   D27       -2.90906  -0.00002   0.00000  -0.00136  -0.00136  -2.91042
   D28        1.30958  -0.00003   0.00000  -0.00113  -0.00113   1.30845
   D29        1.21397  -0.00002   0.00000  -0.00183  -0.00183   1.21214
   D30       -0.86294  -0.00002   0.00000  -0.00158  -0.00158  -0.86452
   D31       -2.92749  -0.00002   0.00000  -0.00134  -0.00134  -2.92884
   D32       -2.96137  -0.00001   0.00000  -0.00189  -0.00189  -2.96326
   D33        1.24490  -0.00000   0.00000  -0.00164  -0.00164   1.24327
   D34       -0.81965  -0.00001   0.00000  -0.00140  -0.00140  -0.82105
   D35        1.59635  -0.00001   0.00000  -0.00085  -0.00085   1.59550
   D36       -2.58709  -0.00001   0.00000  -0.00089  -0.00089  -2.58799
   D37       -0.58540  -0.00001   0.00000  -0.00089  -0.00089  -0.58629
   D38       -2.60390  -0.00001   0.00000  -0.00105  -0.00105  -2.60495
   D39       -0.50416  -0.00000   0.00000  -0.00109  -0.00109  -0.50525
   D40        1.49754  -0.00000   0.00000  -0.00109  -0.00109   1.49645
   D41       -0.49736  -0.00001   0.00000  -0.00140  -0.00140  -0.49876
   D42        1.60239   0.00000   0.00000  -0.00145  -0.00145   1.60094
   D43       -2.67910   0.00000   0.00000  -0.00144  -0.00144  -2.68055
   D44        1.30552  -0.00000   0.00000  -0.00117  -0.00117   1.30434
   D45       -2.91931  -0.00001   0.00000  -0.00133  -0.00133  -2.92065
   D46       -0.77672  -0.00001   0.00000  -0.00135  -0.00135  -0.77807
   D47       -2.82733   0.00001   0.00000  -0.00059  -0.00059  -2.82792
   D48       -0.76898   0.00000   0.00000  -0.00075  -0.00075  -0.76973
   D49        1.37361  -0.00000   0.00000  -0.00077  -0.00077   1.37284
   D50       -0.74205  -0.00000   0.00000  -0.00097  -0.00097  -0.74302
   D51        1.31631  -0.00001   0.00000  -0.00113  -0.00113   1.31517
   D52       -2.82429  -0.00002   0.00000  -0.00115  -0.00115  -2.82544
   D53       -0.97898   0.00001   0.00000   0.00101   0.00101  -0.97796
   D54        1.16612   0.00000   0.00000   0.00104   0.00104   1.16716
   D55       -3.11801   0.00000   0.00000   0.00108   0.00108  -3.11693
   D56       -3.08938   0.00002   0.00000   0.00116   0.00116  -3.08822
   D57       -0.94428   0.00001   0.00000   0.00119   0.00119  -0.94309
   D58        1.05477   0.00001   0.00000   0.00123   0.00123   1.05601
   D59        1.19680   0.00001   0.00000   0.00110   0.00110   1.19790
   D60       -2.94129  -0.00000   0.00000   0.00113   0.00113  -2.94016
   D61       -0.94224  -0.00000   0.00000   0.00117   0.00117  -0.94107
   D62       -0.28256   0.00003   0.00000   0.00227   0.00227  -0.28029
   D63        1.81933   0.00000   0.00000   0.00180   0.00180   1.82113
   D64       -2.40999   0.00000   0.00000   0.00179   0.00179  -2.40821
   D65       -2.37057   0.00003   0.00000   0.00221   0.00221  -2.36837
   D66       -0.26868  -0.00000   0.00000   0.00174   0.00174  -0.26694
   D67        1.78518  -0.00000   0.00000   0.00172   0.00172   1.78690
   D68        1.85625   0.00002   0.00000   0.00225   0.00225   1.85850
   D69       -2.32504  -0.00001   0.00000   0.00178   0.00178  -2.32326
   D70       -0.27118  -0.00000   0.00000   0.00177   0.00177  -0.26941
   D71       -1.35006  -0.00001   0.00000  -0.00126  -0.00126  -1.35131
   D72        0.95451  -0.00001   0.00000  -0.00087  -0.00087   0.95364
   D73        2.80567  -0.00000   0.00000  -0.00098  -0.00098   2.80469
   D74       -1.17295  -0.00001   0.00000  -0.00059  -0.00059  -1.17354
   D75        0.81826   0.00000   0.00000  -0.00091  -0.00091   0.81735
   D76        3.12282  -0.00000   0.00000  -0.00051  -0.00052   3.12230
         Item               Value     Threshold  Converged?
 Maximum Force            0.000093     0.000450     YES
 RMS     Force            0.000021     0.000300     YES
 Maximum Displacement     0.004412     0.001800     NO 
 RMS     Displacement     0.001244     0.001200     NO 
 Predicted change in Energy=-5.231048D-07
 GradGradGradGradGradGradGradGradGradGradGradGradGradGradGradGradGradGrad

                          Input orientation:                          
 ---------------------------------------------------------------------
 Center     Atomic      Atomic             Coordinates (Angstroms)
 Number     Number       Type             X           Y           Z
 ---------------------------------------------------------------------
      1          6           0        0.768692    0.581695   -1.504253
      2          6           0        0.976848   -0.825162    0.405104
      3          6           0       -0.028949   -0.748350    1.544045
      4          6           0       -1.047853    0.347245    1.120697
      5          6           0       -0.344480    1.652904    0.610208
      6          6           0       -0.065801    1.745860   -0.914748
      7          1           0        1.835644    0.724019   -1.323612
      8          1           0        0.621849    0.509433   -2.587479
      9          1           0       -1.652072    0.613139    1.995395
     10          1           0       -0.984029    2.505203    0.868816
     11          1           0        0.590511    1.797422    1.167161
     12          1           0       -1.024509    1.807476   -1.444153
     13          1           0        0.448048    2.692777   -1.122541
     14          1           0        0.520937   -0.493489    2.453131
     15          8           0        2.185276   -0.780208    0.576398
     16          6           0       -1.943382   -0.273560    0.037666
     17          1           0       -2.653007   -0.972275    0.496692
     18          1           0       -2.538466    0.492880   -0.469975
     19          6           0       -1.032253   -1.046845   -0.964709
     20          7           0        0.395532   -0.698898   -0.871865
     21          1           0       -1.114996   -2.123635   -0.787592
     22          1           0       -1.341250   -0.881257   -2.000645
     23          1           0       -0.545833   -1.700573    1.720335
 ---------------------------------------------------------------------
                    Distance matrix (angstroms):
                    1          2          3          4          5
     1  C    0.000000
     2  C    2.380802   0.000000
     3  C    3.420142   1.521419   0.000000
     4  C    3.200807   2.446636   1.554901   0.000000
     5  C    2.618698   2.815810   2.595695   1.568464   0.000000
     6  C    1.548926   3.072341   3.502585   2.657741   1.552994
     7  H    1.091455   2.475066   3.723981   3.798837   3.058664
     8  H    1.095520   3.295865   4.367499   4.069986   3.530796
     9  H    4.255422   3.392485   2.166078   1.095844   2.170173
    10  H    3.521842   3.892480   3.457415   2.173546   1.096502
    11  H    2.940440   2.758249   2.647022   2.188472   1.097857
    12  H    2.172952   3.788926   4.056194   2.951487   2.169500
    13  H    2.169143   3.871592   4.379447   3.573704   2.170681
    14  H    4.108320   2.124213   1.092596   2.223357   2.958431
    15  O    2.861922   1.221336   2.416640   3.467064   3.510105
    16  C    3.234860   2.994498   2.481865   1.536336   2.568181
    17  H    4.257538   3.633989   2.834214   2.169570   3.497677
    18  H    3.466253   3.854922   3.448855   2.184805   2.706663
    19  C    2.487298   2.441724   2.718376   2.508516   3.200318
    20  N    1.476171   1.408730   2.453416   2.673590   2.876652
    21  H    3.373529   2.735757   2.916752   3.122712   4.099974
    22  H    2.615050   3.341309   3.782145   3.367206   3.772541
    23  H    4.163495   2.194250   1.097714   2.192065   3.538182
                    6          7          8          9         10
     6  C    0.000000
     7  H    2.197002   0.000000
     8  H    2.190809   1.765419   0.000000
     9  H    3.502606   4.815835   5.117051   0.000000
    10  H    2.144959   3.991230   4.302084   2.301167   0.000000
    11  H    2.183517   2.984376   3.969537   2.667898   1.751896
    12  H    1.096900   3.060863   2.388013   3.694694   2.416255
    13  H    1.097210   2.416994   2.635003   4.296152   2.459987
    14  H    4.086753   4.180260   5.140408   2.481152   3.710409
    15  O    3.697550   2.448464   3.757339   4.322060   4.574268
    16  C    2.917269   4.138753   3.752982   2.168824   3.054946
    17  H    4.009247   5.132145   4.736270   2.400316   3.875154
    18  H    2.807464   4.462617   3.804167   2.622633   2.873688
    19  C    2.955626   3.389631   2.791314   3.449919   3.997648
    20  N    2.488274   2.074293   2.110596   3.759694   3.898644
    21  H    4.011231   4.135544   3.631704   3.939975   4.918027
    22  H    3.115716   3.623249   2.476318   4.277635   4.453035
    23  H    4.364858   4.562422   4.980449   2.579279   4.313427
                   11         12         13         14         15
    11  H    0.000000
    12  H    3.070399   0.000000
    13  H    2.462659   1.748033   0.000000
    14  H    2.628085   4.782433   4.789889   0.000000
    15  O    3.088114   4.591454   4.238629   2.524750   0.000000
    16  C    3.461984   2.714926   3.982985   3.457703   4.194370
    17  H    4.317541   3.761103   5.066662   3.759097   4.842750
    18  H    3.764643   2.229181   3.766252   4.344815   5.002937
    19  C    3.907440   2.894317   4.025043   3.794764   3.577512
    20  N    3.229126   2.936995   3.401331   3.333695   2.303749
    21  H    4.701543   3.986589   5.074754   3.979440   3.815371
    22  H    4.576244   2.763926   4.092233   4.842956   4.368952
    23  H    3.719307   4.748633   5.326468   1.769757   3.100745
                   16         17         18         19         20
    16  C    0.000000
    17  H    1.096575   0.000000
    18  H    1.095104   1.759046   0.000000
    19  C    1.559770   2.183598   2.210021   0.000000
    20  N    2.545324   3.352801   3.192208   1.472500   0.000000
    21  H    2.188619   2.310952   2.995546   1.094392   2.078142
    22  H    2.210558   2.822354   2.380027   1.093645   2.079377
    23  H    2.611682   2.543207   3.685007   2.805963   2.934113
                   21         22         23
    21  H    0.000000
    22  H    1.751054   0.000000
    23  H    2.606267   3.892256   0.000000
 Symmetry turned off by external request.
 Stoichiometry    C8H13NO
 Framework group  C1[X(C8H13NO)]
 Deg. of freedom    63
 Full point group                 C1      NOp   1
 Rotational constants (GHZ):           1.7631171           1.5282497           1.3610654
 Standard basis: 6-31+G(d,p) (6D, 7F)
   255 basis functions,   411 primitive gaussians,   255 cartesian basis functions
    38 alpha electrons       38 beta electrons
       nuclear repulsion energy       585.6275197451 Hartrees.
 NAtoms=   23 NActive=   23 NUniq=   23 SFac= 1.00D+00 NAtFMM=   60 NAOKFM=F Big=F
 Integral buffers will be    131072 words long.
 Raffenetti 2 integral format.
 Two-electron integral symmetry is turned off.
 One-electron integrals computed using PRISM.
 NBasis=   255 RedAO= T EigKep=  1.08D-05  NBF=   255
 NBsUse=   255 1.00D-06 EigRej= -1.00D+00 NBFU=   255
 Initial guess from the checkpoint file:  "/scratch/Grace/g03/Gau-32440.chk"
 B after Tr=    -0.000159   -0.000608   -0.000289
         Rot=    1.000000   -0.000044   -0.000051    0.000121 Ang=  -0.02 deg.
 Requested convergence on RMS density matrix=1.00D-08 within 128 cycles.
 Requested convergence on MAX density matrix=1.00D-06.
 Requested convergence on             energy=1.00D-06.
 No special actions if energy rises.
 SCF Done:  E(RB3LYP) =  -442.680549127     A.U. after    8 cycles
            NFock=  8  Conv=0.96D-08     -V/T= 2.0097
 Calling FoFJK, ICntrl=      2127 FMM=F ISym2X=0 I1Cent= 0 IOpClX= 0 NMat=1 NMatS=1 NMatT=0.
 -------------------------------------------------------------------
 Center     Atomic                   Forces (Hartrees/Bohr)
 Number     Number              X              Y              Z
 -------------------------------------------------------------------
      1        6           0.000015456    0.000029171   -0.000020531
      2        6           0.000014861    0.000233176   -0.000073780
      3        6          -0.000085161   -0.000040893   -0.000017180
      4        6           0.000022068    0.000005107    0.000013495
      5        6          -0.000004192   -0.000037231   -0.000001997
      6        6          -0.000007698   -0.000029475    0.000008755
      7        1          -0.000006280    0.000003020    0.000001706
      8        1           0.000002344    0.000005979   -0.000001205
      9        1           0.000000408   -0.000006563    0.000010471
     10        1          -0.000009724   -0.000007475    0.000002289
     11        1           0.000003082   -0.000006285    0.000006983
     12        1          -0.000011168   -0.000007578    0.000000747
     13        1           0.000000224    0.000000992   -0.000002485
     14        1           0.000013122    0.000005128   -0.000010203
     15        8           0.000025199   -0.000084645    0.000026564
     16        6           0.000027001    0.000014536    0.000004803
     17        1           0.000004960    0.000003523    0.000008272
     18        1          -0.000005958    0.000010898   -0.000005837
     19        6           0.000052301   -0.000032479    0.000015286
     20        7          -0.000028855   -0.000050554    0.000033902
     21        1          -0.000016846   -0.000014147   -0.000014636
     22        1           0.000006367    0.000009184    0.000005701
     23        1          -0.000011510   -0.000003391    0.000008880
 -------------------------------------------------------------------
 Cartesian Forces:  Max     0.000233176 RMS     0.000036962

 GradGradGradGradGradGradGradGradGradGradGradGradGradGradGradGradGradGrad
 Berny optimization.
 Using GEDIIS/GDIIS optimizer.
 FormGI is forming the generalized inverse of G from B-inverse, IUseBI=4.
 Internal  Forces:  Max     0.000062118 RMS     0.000014377
 Search for a local minimum.
 Step number   2 out of a maximum of  138
 All quantities printed in internal units (Hartrees-Bohrs-Radians)
 Mixed Optimization -- En-DIIS/RFO-DIIS
 Swapping is turned off.
 Update second derivatives using D2CorX and points    1    2
 DE= -3.13D-07 DEPred=-5.23D-07 R= 5.99D-01
 Trust test= 5.99D-01 RLast= 1.18D-02 DXMaxT set to 3.00D-01
 ITU=  0  0
     Eigenvalues ---    0.00357   0.00429   0.00725   0.00979   0.01738
     Eigenvalues ---    0.02290   0.02399   0.03161   0.03462   0.03703
     Eigenvalues ---    0.03812   0.04382   0.04604   0.04644   0.04740
     Eigenvalues ---    0.05041   0.05177   0.05506   0.05630   0.06015
     Eigenvalues ---    0.07077   0.07539   0.08011   0.08113   0.08435
     Eigenvalues ---    0.08522   0.08722   0.08944   0.09225   0.09469
     Eigenvalues ---    0.09654   0.09786   0.12143   0.12549   0.15463
     Eigenvalues ---    0.17037   0.18570   0.19734   0.23950   0.24593
     Eigenvalues ---    0.24792   0.26126   0.26591   0.27531   0.27618
     Eigenvalues ---    0.28597   0.32606   0.33573   0.33935   0.33965
     Eigenvalues ---    0.34027   0.34041   0.34070   0.34084   0.34157
     Eigenvalues ---    0.34184   0.34253   0.34348   0.34453   0.34513
     Eigenvalues ---    0.34631   0.40860   0.94935
 En-DIIS/RFO-DIIS/Sim-DIIS IScMMF=       -3 using points:     2    1
 RFO step:  Lambda=-5.54924517D-07.
 DidBck=F Rises=F RFO-DIIS coefs:    1.15352   -0.15352
 Iteration  1 RMS(Cart)=  0.00045818 RMS(Int)=  0.00000041
 Iteration  2 RMS(Cart)=  0.00000033 RMS(Int)=  0.00000018
 Variable       Old X    -DE/DX   Delta X   Delta X   Delta X     New X
                                 (Linear)    (Quad)   (Total)
    R1        2.92705  -0.00002   0.00001  -0.00003  -0.00002   2.92703
    R2        2.06255  -0.00001  -0.00001  -0.00003  -0.00004   2.06251
    R3        2.07023   0.00000   0.00002   0.00003   0.00004   2.07028
    R4        2.78956   0.00001   0.00003   0.00004   0.00007   2.78963
    R5        2.87506   0.00004   0.00003   0.00006   0.00010   2.87516
    R6        2.30799   0.00002  -0.00001  -0.00000  -0.00001   2.30798
    R7        2.66211  -0.00004  -0.00002  -0.00012  -0.00014   2.66197
    R8        2.93834  -0.00006   0.00003  -0.00014  -0.00010   2.93823
    R9        2.06471  -0.00000  -0.00000  -0.00001  -0.00001   2.06470
   R10        2.07438   0.00001   0.00002   0.00006   0.00008   2.07446
   R11        2.96397  -0.00005  -0.00002  -0.00015  -0.00017   2.96380
   R12        2.07085   0.00001  -0.00001  -0.00001  -0.00002   2.07082
   R13        2.90325  -0.00003  -0.00001  -0.00010  -0.00011   2.90314
   R14        2.93473   0.00000  -0.00002   0.00001  -0.00001   2.93472
   R15        2.07209  -0.00000  -0.00001  -0.00001  -0.00002   2.07207
   R16        2.07465   0.00001   0.00002   0.00005   0.00008   2.07473
   R17        2.07284   0.00001  -0.00000   0.00002   0.00002   2.07286
   R18        2.07343   0.00000   0.00004   0.00008   0.00012   2.07354
   R19        2.07223  -0.00000   0.00002   0.00003   0.00005   2.07227
   R20        2.06945   0.00001   0.00001   0.00005   0.00006   2.06950
   R21        2.94754   0.00001  -0.00001   0.00008   0.00008   2.94762
   R22        2.78262  -0.00002  -0.00005  -0.00010  -0.00014   2.78248
   R23        2.06810   0.00001  -0.00000   0.00002   0.00002   2.06812
   R24        2.06669  -0.00001   0.00001   0.00001   0.00002   2.06671
    A1        1.94514   0.00000  -0.00002  -0.00002  -0.00004   1.94510
    A2        1.93230   0.00001  -0.00001   0.00005   0.00004   1.93234
    A3        1.93134  -0.00003   0.00000  -0.00024  -0.00024   1.93109
    A4        1.87893  -0.00000  -0.00000   0.00004   0.00003   1.87896
    A5        1.86433   0.00001  -0.00001   0.00002   0.00002   1.86435
    A6        1.90973   0.00001   0.00004   0.00016   0.00021   1.90994
    A7        2.14988  -0.00002  -0.00006   0.00011   0.00005   2.14993
    A8        1.98369  -0.00001   0.00004   0.00008   0.00012   1.98381
    A9        2.13191   0.00004  -0.00004   0.00034   0.00030   2.13220
   A10        1.83896  -0.00000   0.00007  -0.00015  -0.00008   1.83888
   A11        1.87751  -0.00002  -0.00005  -0.00019  -0.00025   1.87727
   A12        1.96895   0.00002  -0.00001   0.00020   0.00019   1.96914
   A13        1.97357   0.00000  -0.00002   0.00000  -0.00002   1.97355
   A14        1.92451  -0.00001   0.00001   0.00006   0.00007   1.92459
   A15        1.88147   0.00000  -0.00000   0.00008   0.00008   1.88155
   A16        1.96200   0.00001   0.00005   0.00004   0.00009   1.96209
   A17        1.89120  -0.00000  -0.00003   0.00004   0.00001   1.89121
   A18        1.86417  -0.00001   0.00003  -0.00013  -0.00010   1.86407
   A19        1.88081   0.00000  -0.00004   0.00011   0.00007   1.88088
   A20        1.94801  -0.00001   0.00002  -0.00016  -0.00014   1.94788
   A21        1.91701   0.00001  -0.00003   0.00011   0.00007   1.91708
   A22        2.03744   0.00000   0.00003  -0.00001   0.00002   2.03747
   A23        1.88465  -0.00001  -0.00003  -0.00014  -0.00017   1.88448
   A24        1.90327   0.00000   0.00000   0.00003   0.00003   1.90330
   A25        1.86474   0.00000  -0.00000  -0.00002  -0.00002   1.86472
   A26        1.91500   0.00000  -0.00001   0.00006   0.00005   1.91504
   A27        1.84915   0.00000   0.00001   0.00008   0.00009   1.84924
   A28        2.01021   0.00001   0.00002   0.00004   0.00006   2.01027
   A29        1.90648   0.00000  -0.00001  -0.00003  -0.00004   1.90644
   A30        1.90102  -0.00001   0.00001  -0.00001   0.00000   1.90102
   A31        1.89700  -0.00001   0.00001  -0.00001  -0.00001   1.89699
   A32        1.89828  -0.00000  -0.00005  -0.00006  -0.00011   1.89816
   A33        1.84361   0.00000   0.00003   0.00008   0.00010   1.84371
   A34        1.91728  -0.00001  -0.00001  -0.00011  -0.00012   1.91716
   A35        1.93984  -0.00000  -0.00001  -0.00002  -0.00004   1.93980
   A36        1.88900   0.00001   0.00003   0.00006   0.00009   1.88909
   A37        1.86329   0.00000  -0.00001   0.00001  -0.00000   1.86329
   A38        1.90830   0.00000   0.00001   0.00006   0.00007   1.90837
   A39        1.94604   0.00000  -0.00001   0.00000  -0.00001   1.94604
   A40        1.99186  -0.00001   0.00002   0.00007   0.00009   1.99196
   A41        1.91731  -0.00000  -0.00001   0.00005   0.00004   1.91735
   A42        1.94833   0.00000   0.00001  -0.00011  -0.00010   1.94822
   A43        1.87088   0.00002  -0.00006   0.00011   0.00004   1.87093
   A44        1.87329  -0.00001   0.00004  -0.00008  -0.00004   1.87326
   A45        1.85554  -0.00000  -0.00000  -0.00004  -0.00004   1.85550
   A46        1.94096  -0.00000  -0.00001  -0.00016  -0.00017   1.94079
   A47        2.00765   0.00000  -0.00000  -0.00011  -0.00011   2.00754
   A48        2.02205  -0.00000   0.00007   0.00003   0.00010   2.02215
    D1       -1.41001   0.00001   0.00012   0.00049   0.00062  -1.40940
    D2        2.73311   0.00000   0.00011   0.00051   0.00061   2.73372
    D3        0.72748   0.00000   0.00008   0.00043   0.00051   0.72799
    D4        2.78234   0.00000   0.00015   0.00043   0.00058   2.78292
    D5        0.64228  -0.00000   0.00013   0.00044   0.00057   0.64285
    D6       -1.36335   0.00000   0.00010   0.00037   0.00047  -1.36288
    D7        0.66183   0.00000   0.00010   0.00035   0.00045   0.66228
    D8       -1.47823  -0.00000   0.00009   0.00036   0.00045  -1.47778
    D9        2.79933  -0.00000   0.00006   0.00029   0.00035   2.79967
   D10       -1.35952   0.00001  -0.00024   0.00003  -0.00021  -1.35973
   D11        0.98313   0.00000  -0.00015  -0.00019  -0.00034   0.98278
   D12        0.76072  -0.00000  -0.00027  -0.00012  -0.00039   0.76033
   D13        3.10337  -0.00000  -0.00018  -0.00035  -0.00052   3.10284
   D14        2.78990   0.00001  -0.00025   0.00002  -0.00023   2.78967
   D15       -1.15064   0.00000  -0.00016  -0.00021  -0.00037  -1.15101
   D16        2.26384   0.00003   0.00008   0.00230   0.00238   2.26622
   D17        0.15387   0.00003   0.00010   0.00247   0.00257   0.15644
   D18       -1.91883   0.00003   0.00013   0.00239   0.00252  -1.91631
   D19       -0.68017  -0.00003   0.00037  -0.00064  -0.00026  -0.68044
   D20       -2.79015  -0.00003   0.00039  -0.00047  -0.00007  -2.79022
   D21        1.42034  -0.00003   0.00043  -0.00055  -0.00012   1.42022
   D22        1.92834   0.00002  -0.00020   0.00041   0.00021   1.92855
   D23       -0.40721   0.00002  -0.00026   0.00071   0.00045  -0.40677
   D24       -1.01796  -0.00004   0.00010  -0.00247  -0.00237  -1.02033
   D25        2.92967  -0.00004   0.00004  -0.00217  -0.00213   2.92753
   D26       -0.83376   0.00003  -0.00025   0.00050   0.00025  -0.83351
   D27       -2.91042   0.00002  -0.00021   0.00032   0.00011  -2.91031
   D28        1.30845   0.00001  -0.00017   0.00024   0.00007   1.30852
   D29        1.21214   0.00000  -0.00028   0.00018  -0.00010   1.21204
   D30       -0.86452  -0.00001  -0.00024  -0.00001  -0.00025  -0.86477
   D31       -2.92884  -0.00001  -0.00021  -0.00008  -0.00029  -2.92912
   D32       -2.96326   0.00001  -0.00029   0.00032   0.00003  -2.96322
   D33        1.24327  -0.00000  -0.00025   0.00014  -0.00011   1.24315
   D34       -0.82105  -0.00001  -0.00022   0.00006  -0.00015  -0.82120
   D35        1.59550  -0.00000  -0.00013  -0.00001  -0.00014   1.59536
   D36       -2.58799  -0.00001  -0.00014  -0.00014  -0.00028  -2.58827
   D37       -0.58629  -0.00001  -0.00014  -0.00011  -0.00025  -0.58654
   D38       -2.60495   0.00000  -0.00016   0.00013  -0.00003  -2.60498
   D39       -0.50525  -0.00000  -0.00017  -0.00000  -0.00017  -0.50542
   D40        1.49645  -0.00000  -0.00017   0.00003  -0.00014   1.49631
   D41       -0.49876   0.00001  -0.00022   0.00024   0.00002  -0.49874
   D42        1.60094   0.00000  -0.00022   0.00011  -0.00012   1.60082
   D43       -2.68055   0.00000  -0.00022   0.00014  -0.00008  -2.68063
   D44        1.30434   0.00000  -0.00018  -0.00002  -0.00020   1.30415
   D45       -2.92065  -0.00000  -0.00020  -0.00009  -0.00030  -2.92095
   D46       -0.77807   0.00001  -0.00021  -0.00006  -0.00027  -0.77834
   D47       -2.82792   0.00000  -0.00009  -0.00015  -0.00024  -2.82817
   D48       -0.76973  -0.00000  -0.00012  -0.00023  -0.00034  -0.77008
   D49        1.37284   0.00001  -0.00012  -0.00020  -0.00031   1.37253
   D50       -0.74302   0.00001  -0.00015  -0.00004  -0.00019  -0.74321
   D51        1.31517   0.00000  -0.00017  -0.00012  -0.00030   1.31488
   D52       -2.82544   0.00001  -0.00018  -0.00009  -0.00027  -2.82570
   D53       -0.97796  -0.00002   0.00016  -0.00050  -0.00034  -0.97830
   D54        1.16716  -0.00001   0.00016  -0.00051  -0.00035   1.16681
   D55       -3.11693  -0.00001   0.00017  -0.00046  -0.00029  -3.11722
   D56       -3.08822  -0.00001   0.00018  -0.00030  -0.00012  -3.08833
   D57       -0.94309   0.00000   0.00018  -0.00031  -0.00013  -0.94322
   D58        1.05601   0.00000   0.00019  -0.00026  -0.00007   1.05593
   D59        1.19790  -0.00001   0.00017  -0.00041  -0.00024   1.19766
   D60       -2.94016  -0.00000   0.00017  -0.00043  -0.00025  -2.94042
   D61       -0.94107  -0.00000   0.00018  -0.00037  -0.00019  -0.94126
   D62       -0.28029  -0.00002   0.00035   0.00010   0.00045  -0.27984
   D63        1.82113   0.00000   0.00028   0.00032   0.00060   1.82173
   D64       -2.40821  -0.00000   0.00027   0.00023   0.00051  -2.40770
   D65       -2.36837  -0.00001   0.00034   0.00016   0.00050  -2.36787
   D66       -0.26694   0.00001   0.00027   0.00038   0.00065  -0.26629
   D67        1.78690   0.00001   0.00026   0.00029   0.00056   1.78746
   D68        1.85850  -0.00001   0.00035   0.00011   0.00046   1.85896
   D69       -2.32326   0.00001   0.00027   0.00033   0.00061  -2.32265
   D70       -0.26941   0.00000   0.00027   0.00025   0.00052  -0.26890
   D71       -1.35131  -0.00000  -0.00019  -0.00017  -0.00036  -1.35167
   D72        0.95364  -0.00000  -0.00013  -0.00050  -0.00063   0.95301
   D73        2.80469  -0.00001  -0.00015  -0.00035  -0.00050   2.80419
   D74       -1.17354  -0.00001  -0.00009  -0.00068  -0.00077  -1.17431
   D75        0.81735  -0.00001  -0.00014  -0.00031  -0.00045   0.81690
   D76        3.12230  -0.00001  -0.00008  -0.00065  -0.00072   3.12158
         Item               Value     Threshold  Converged?
 Maximum Force            0.000062     0.000450     YES
 RMS     Force            0.000014     0.000300     YES
 Maximum Displacement     0.003915     0.001800     NO 
 RMS     Displacement     0.000458     0.001200     YES
 Predicted change in Energy=-2.776095D-07
 GradGradGradGradGradGradGradGradGradGradGradGradGradGradGradGradGradGrad

                          Input orientation:                          
 ---------------------------------------------------------------------
 Center     Atomic      Atomic             Coordinates (Angstroms)
 Number     Number       Type             X           Y           Z
 ---------------------------------------------------------------------
      1          6           0        0.768888    0.581751   -1.504265
      2          6           0        0.976841   -0.824853    0.405094
      3          6           0       -0.028956   -0.748204    1.544113
      4          6           0       -1.047830    0.347362    1.120820
      5          6           0       -0.344626    1.652909    0.610083
      6          6           0       -0.066046    1.745655   -0.914898
      7          1           0        1.835711    0.724276   -1.323161
      8          1           0        0.622479    0.509583   -2.587580
      9          1           0       -1.651998    0.613282    1.995530
     10          1           0       -0.984408    2.505070    0.868538
     11          1           0        0.590381    1.797683    1.167025
     12          1           0       -1.024811    1.806752   -1.444278
     13          1           0        0.447475    2.692799   -1.122796
     14          1           0        0.521145   -0.493210    2.453026
     15          8           0        2.185333   -0.782279    0.576504
     16          6           0       -1.943276   -0.273534    0.037857
     17          1           0       -2.652689   -0.972412    0.497024
     18          1           0       -2.538630    0.492851   -0.469612
     19          6           0       -1.032142   -1.046538   -0.964795
[...]
 2,0.00677761,0.01918893,0.00076651,0.00163247,0.00023771,-0.00005723,0
 .00000483,-0.00016948,0.00001254,0.00001117,0.00002952,0.00000626,0.00
 008750,-0.00001820,-0.00068706,0.00100551,-0.00042632,-0.00006005,0.00
 009855,-0.00017180,-0.00059228,-0.00025696,-0.00021181,0.00001565,0.00
 003724,-0.00013166,-0.00004342,0.00000544,0.00007586,0.03513906,0.0667
 0249,-0.00019907,-0.00131895,-0.00085078,-0.01564085,-0.00692478,-0.02
 402663,-0.11225697,-0.05581131,-0.23339157,-0.00145147,-0.00165509,-0.
 00351368,-0.00036005,-0.00040995,-0.00007125,0.00018483,-0.00000851,0.
 00003301,0.00006339,0.00007340,-0.00000380,0.00009795,0.00048156,-0.00
 017078,-0.00007757,0.00032639,0.00072061,0.00017942,0.00003931,0.00014
 486,0.00041946,0.00057451,-0.00007671,0.00000860,0.00000667,0.00014296
 ,-0.00001581,0.00003483,-0.00001007,0.12184965,0.05897779,0.25247199,-
 0.01147849,-0.00690824,0.01082890,-0.68597744,-0.01931538,-0.05253394,
 -0.04627896,0.00023109,0.00604764,-0.00096064,-0.00273997,0.00617093,-
 0.00124919,-0.00142854,-0.00132679,0.00259196,0.00335992,-0.00155968,0
 .00194746,0.00200613,-0.00124031,0.00122056,0.00090473,-0.00020450,-0.
 00129284,0.00206291,-0.00057525,0.00046577,0.00029843,0.00027288,0.000
 48942,0.00087999,0.00075392,0.00010454,-0.00037136,0.00009321,-0.00066
 322,0.00155352,0.00019132,0.00083246,0.00104758,-0.00025351,0.78558578
 ,-0.00398780,-0.00115606,0.00356978,-0.02107988,-0.06924624,0.00999424
 ,0.00045424,0.02418855,-0.00500486,-0.00221646,-0.00080690,0.00536453,
 -0.00066454,-0.00164161,-0.00121531,0.00086980,0.00224913,-0.00075004,
 0.00217430,0.00054423,0.00008650,0.00077435,0.00030104,-0.00015822,-0.
 00112002,0.00111613,-0.00080366,0.00061919,0.00029437,0.00008210,0.000
 73836,0.00038062,0.00062058,0.00027034,-0.00027491,0.00002531,-0.00033
 915,0.00068563,-0.00001894,-0.00067877,-0.00000512,0.00156713,0.017613
 55,0.02813804,-0.00329304,-0.00097657,0.00219707,-0.06552005,-0.000656
 27,-0.10691733,0.02808185,0.00270065,0.01069092,0.00184314,0.00180716,
 -0.00361224,-0.00001143,-0.00006884,-0.00072550,-0.00011887,0.00033712
 ,-0.00131998,-0.00189074,-0.00061049,-0.00126803,-0.00058637,-0.000002
 96,0.00006384,0.00095210,-0.00099149,0.00067321,0.00000377,-0.00019529
 ,0.00046471,0.00021924,0.00030319,0.00026650,-0.00033831,0.00029419,0.
 00033755,-0.00027448,0.00057052,0.00037813,-0.00068483,0.00086192,0.00
 431122,0.09972992,-0.00207124,0.11391446,-0.00107102,0.00230217,0.0001
 9457,0.00082295,-0.00030928,0.00362116,-0.01908700,-0.00346313,-0.0217
 3793,-0.10985756,-0.02184937,-0.04001312,-0.01526547,-0.01107729,-0.00
 873170,0.00071666,-0.00193879,0.00083774,0.00006913,-0.00015430,0.0000
 2487,-0.00021617,-0.00039794,0.00016901,0.01160152,0.00658775,0.012716
 52,0.00069577,0.00035424,0.00007800,-0.00062248,-0.00259700,0.00055684
 ,-0.00095735,-0.00030513,-0.00053851,-0.00028542,0.00017979,-0.0008058
 9,-0.00237532,0.00247746,-0.00010811,-0.00006702,-0.00078830,-0.000914
 37,0.53218147,-0.00127296,0.00153856,0.00067158,0.00116081,0.00104070,
 0.00120724,0.01389955,0.00857390,0.01826428,-0.02332477,-0.09291058,-0
 .02919105,-0.02012460,-0.01210295,-0.01719002,0.00046541,0.00062192,-0
 .00005431,0.00006085,-0.00053733,-0.00010347,0.00007365,0.00018308,0.0
 0000212,-0.00746172,-0.00463778,-0.00662016,0.00006238,-0.00021576,-0.
 00018762,-0.00130796,-0.00413272,0.00147502,-0.00115936,-0.00133124,0.
 00090802,0.00013357,0.00053069,-0.00062586,0.00463772,-0.00352800,0.00
 109844,-0.00131334,-0.00028808,-0.00104891,0.00729999,0.54617884,-0.00
 037861,-0.00030827,0.00004755,0.00137201,0.00095831,-0.00037062,-0.015
 39603,0.00207870,-0.01273443,-0.03918652,-0.02802967,-0.12480647,0.003
 93598,0.00084908,0.00906804,0.00125656,0.00131324,0.00066237,-0.000129
 42,0.00004546,0.00012764,-0.00006176,-0.00028489,-0.00013217,-0.017240
 87,-0.01014383,-0.01691520,0.00058198,0.00100189,-0.00008783,0.0021670
 1,0.00312529,-0.00022099,0.00077962,0.00064814,-0.00025470,0.00017321,
 -0.00012268,-0.00020186,-0.00127811,0.00127974,0.00082336,-0.00144298,
 -0.00069901,-0.00031327,0.01083817,-0.09331693,0.46232642,-0.00002447,
 0.00075296,-0.00014194,0.00087201,-0.00038237,0.00218264,0.00072821,-0
 .00077906,0.00076468,-0.01148041,-0.01218669,0.00787996,-0.00142822,0.
 00002724,-0.00289947,0.00024082,0.00073052,-0.00060395,0.00000639,-0.0
 0014912,0.00000034,-0.00000538,-0.00003610,0.00009190,0.00117983,0.000
 27812,-0.00009468,-0.00010453,-0.00035355,-0.00008461,-0.00024857,-0.0
 0095742,0.00021873,0.00028549,-0.00009941,0.00022891,0.00013875,-0.000
 01815,0.00013938,0.00024180,0.00023225,-0.00013798,-0.00054812,-0.0001
 1518,-0.00071761,-0.15262099,-0.10402482,0.06853204,0.16518585,0.00039
 458,-0.00085209,0.00005290,-0.00022024,-0.00008504,-0.00051201,0.00075
 005,0.00054027,-0.00023001,-0.00806070,-0.01084097,0.00589337,-0.00215
 851,0.00047761,-0.00246494,0.00031188,-0.00007496,-0.00025849,0.000019
 39,0.00024847,0.00000631,-0.00003043,0.00008703,0.00002595,0.00036741,
 0.00019239,-0.00018214,0.00011481,-0.00005546,0.00005131,-0.00056183,-
 0.00089975,0.00017294,-0.00020714,0.00016091,-0.00035953,-0.00018230,0
 .00001448,-0.00001839,-0.00000525,0.00007046,-0.00003793,0.00047388,0.
 00007628,0.00021285,-0.10614538,-0.15414873,0.07341363,0.11405886,0.16
 904827,0.00024922,-0.00071840,0.00015533,-0.00069848,-0.00005289,-0.00
 143362,0.00043463,-0.00076033,0.00088756,-0.01612743,-0.01721392,0.009
 52112,-0.00349348,-0.00097865,-0.00330827,-0.00040861,0.00056430,-0.00
 082750,0.00006574,0.00012112,-0.00004376,-0.00004426,0.00007801,0.0000
 0417,0.00038387,-0.00000231,0.00129698,0.00001947,-0.00008106,-0.00000
 626,-0.00063221,-0.00135704,0.00035544,0.00047376,0.00009121,0.0003657
 7,0.00020205,-0.00001558,0.00018050,0.00018205,-0.00008862,0.00004507,
 0.00059525,0.00013187,0.00042719,0.06969934,0.07423481,-0.09372852,-0.
 07618055,-0.07466814,0.10133503,0.00007754,0.00109276,-0.00014653,0.00
 139761,-0.00001127,-0.00024682,-0.00186893,-0.00197399,-0.00335620,-0.
 01023773,0.01294616,-0.00789459,0.00068850,0.00065942,-0.00026943,-0.0
 0118690,-0.00000431,-0.00045074,0.00005623,-0.00021921,-0.00004349,-0.
 00003804,-0.00013141,0.00005655,0.00016920,-0.00024203,-0.00013723,-0.
 00016287,-0.00046135,-0.00009609,0.00028716,0.00010372,0.00012934,-0.0
 0014815,-0.00092146,0.00125468,0.00049848,-0.00009168,0.00016808,-0.00
 092079,0.00096725,-0.00005448,-0.00071024,-0.00028832,0.00008156,-0.12
 232564,0.09616676,-0.06377390,0.01210997,-0.01434953,0.01025987,0.1310
 8361,0.00010562,-0.00019294,0.00028703,-0.00037342,-0.00002750,-0.0010
 2197,-0.00193071,-0.00092575,-0.00193485,-0.00808516,0.01111423,-0.006
 27971,-0.00044370,0.00079341,0.00060239,-0.00074113,-0.00080728,0.0006
 7501,-0.00002542,0.00010659,-0.00005322,0.00001712,0.00000404,-0.00006
 390,0.00053220,0.00018858,0.00047859,0.00030476,0.00010957,-0.00008456
 ,0.00019625,0.00019728,-0.00003777,-0.00139809,-0.00029632,0.00024916,
 -0.00017638,-0.00001361,-0.00016577,-0.00048956,0.00072258,-0.00034109
 ,0.00038738,0.00004300,0.00030005,0.09814721,-0.17784862,0.08752397,0.
 01107921,-0.01447913,0.01018465,-0.10515400,0.19237584,0.00023442,-0.0
 0018589,0.00005387,0.00011450,0.00003706,-0.00208811,-0.00243310,-0.00
 296562,-0.00375080,-0.01237337,0.01744347,-0.01008414,0.00075748,0.001
 03667,0.00051095,0.00078707,0.00021059,0.00031641,0.00003383,0.0000287
 6,-0.00004371,0.00004097,0.00000194,-0.00001614,0.00044451,0.00009237,
 -0.00006194,-0.00007331,-0.00047013,-0.00009899,0.00024168,0.00002813,
 -0.00014356,0.00054143,0.00040523,0.00023538,0.00007715,0.00012710,0.0
 0010396,-0.00125313,0.00098112,-0.00000944,-0.00003957,0.00001703,0.00
 081530,-0.06545923,0.08769053,-0.10424802,-0.00718954,0.00944573,-0.00
 654498,0.07061837,-0.09371563,0.11600640,-0.01203404,-0.00839609,0.002
 96473,-0.02456501,0.00300865,-0.01890165,-0.00114086,0.00088026,0.0009
 7599,0.01546235,-0.00699267,-0.00379760,-0.00058259,0.00050336,-0.0018
 7850,0.00307861,0.00026292,0.00000311,0.00136661,-0.00007243,-0.000183
 19,0.00102373,0.00238894,-0.00110722,-0.00360117,-0.00170796,-0.003446
 12,-0.00004155,0.00026040,0.00028243,-0.00043269,-0.00069873,0.0001141
 2,-0.00059863,0.00007043,-0.00028088,-0.00086084,0.00125384,0.00020242
 ,-0.00087218,0.00027755,0.00099036,0.00459963,-0.00090351,0.00173850,-
 0.09593093,0.01819799,0.02338961,-0.01122314,0.01304808,0.01240411,-0.
 00728334,0.00529389,0.01140153,0.41495370,-0.03216772,-0.01239233,-0.0
 0169723,0.00087537,-0.00211808,-0.00912073,-0.00006202,0.00065778,0.00
 151790,0.00752865,-0.00896063,-0.01452709,0.00057699,-0.00047643,-0.00
 075964,-0.00141611,0.00047879,-0.00019509,-0.00163582,-0.00410038,0.00
 210478,0.00034316,0.00099903,-0.00077999,-0.00132751,-0.00005320,-0.00
 084715,0.00011719,0.00042033,0.00009848,-0.00002026,0.00029971,0.00017
 379,0.00030660,-0.00038568,0.00002198,0.00026300,0.00069176,0.00003854
 ,0.00000368,-0.00075470,0.00046441,0.00393790,0.00372688,0.00523409,0.
 02456824,-0.10208967,-0.02599529,-0.01124158,0.00879630,0.01251568,0.0
 1162165,-0.01185449,-0.01716809,0.02040581,0.57086053,0.01679862,-0.00
 178621,0.00259239,-0.03544738,-0.01092710,0.00390174,0.00114293,-0.001
 71094,-0.00339887,0.01027098,-0.01459250,-0.02848280,0.00027093,0.0000
 8438,0.00050008,-0.00110234,-0.00052007,0.00077872,0.00051597,0.003692
 75,-0.00181214,0.00141720,0.00078537,-0.00038517,-0.00308298,-0.002546
 67,-0.00237872,0.00005328,0.00019057,0.00005235,0.00025877,0.00041097,
 -0.00013218,-0.00059913,0.00076171,0.00039704,0.00012431,-0.00009697,-
 0.00014890,0.00043927,-0.00048280,0.00063862,-0.00238917,0.00373405,-0
 .00649391,0.02472052,-0.02523401,-0.10656893,0.00655267,-0.00736427,-0
 .00763015,-0.00845308,0.00586291,0.00861247,0.05845045,-0.05604269,0.5
 7777159,-0.09507214,-0.03960087,-0.00116654,-0.11470614,-0.01822054,-0
 .05212261,0.01118560,-0.00011454,0.01323544,-0.00185436,-0.00114598,-0
 .00413861,0.00106350,-0.00091063,-0.00027439,0.00806345,0.01264964,-0.
 00675274,-0.00906930,-0.03332331,0.01578222,0.00143330,0.00623830,-0.0
 0396535,0.00017345,-0.00054888,-0.00059450,0.00004817,0.00008260,-0.00
 039264,0.00035352,0.00043891,0.00024312,0.00068910,-0.00034556,-0.0001
 6542,-0.00135330,0.00301314,0.00078715,-0.00232247,-0.00006666,0.00357
 677,-0.04276282,0.00391090,-0.05910152,-0.03219374,0.00042478,0.009812
 81,-0.00297583,0.00190434,0.00160000,-0.00179668,0.00069542,0.00102143
 ,-0.17376088,-0.02099868,-0.00399915,0.48944035,-0.01670066,-0.1410648
 0,0.04429863,-0.01165567,-0.07094541,0.05093272,0.01163592,0.01681858,
 0.00439460,-0.00242006,0.00210052,-0.00107382,-0.00153795,0.00336199,0
 .00318744,-0.00873894,-0.04420204,0.01360732,-0.00549996,-0.01061985,0
 .00542192,-0.00354165,-0.00842985,0.00784293,0.00073921,0.00116282,-0.
 00030603,-0.00024348,0.00029730,0.00050470,-0.00014114,0.00003000,-0.0
 0035638,0.00078709,0.00025495,0.00081169,0.00512865,-0.00613383,-0.001
 75822,-0.00210789,0.00152144,0.00172328,-0.00247668,0.01288003,-0.0043
 2487,0.01075472,0.00697266,0.00194402,0.00178584,-0.00006700,-0.001356
 94,-0.00002728,-0.00006176,-0.00035282,-0.04347765,-0.08477496,0.01461
 448,0.09811687,0.32608449,-0.02212366,0.06253964,-0.07958392,0.0023147
 2,0.02511852,-0.20169762,-0.00237251,0.00803544,-0.03341762,-0.0025579
 8,0.00371252,-0.00338584,-0.00024392,-0.00091187,-0.00030923,0.0029277
 6,0.00492648,0.00209781,0.00107358,-0.00332053,0.00027227,0.00908363,0
 .03446084,-0.01340890,0.00143859,-0.00052265,0.00146016,-0.00002829,-0
 .00045616,0.00098420,0.00011178,0.00066102,0.00070380,0.00035379,-0.00
 080191,-0.00000934,-0.00092407,0.00109724,0.00117312,0.00320512,0.0002
 4264,-0.00305469,-0.06409843,-0.01210652,-0.01232711,0.01770931,0.0057
 4916,0.00073117,0.00153021,-0.00209853,-0.00147503,0.00107804,-0.00003
 007,0.00038085,-0.01315094,0.01455837,-0.09039142,0.09065322,-0.132467
 91,0.43501559,-0.00507708,-0.00062719,-0.00357821,0.00175335,-0.002141
 10,0.00265243,0.00015533,-0.00008367,-0.00029414,-0.00132202,0.0006133
 0,-0.00024115,0.00009712,-0.00011528,0.00022463,-0.00034180,0.00017290
 ,0.00007973,-0.00054215,-0.00147981,0.00067377,0.00018392,0.00025609,0
 .00014611,0.00020106,0.00003467,0.00018254,0.00001146,-0.00007400,-0.0
 0009122,0.00008638,0.00009302,0.00001907,0.00014365,-0.00015928,0.0001
 0406,0.00023389,-0.00011926,-0.00002847,0.00003520,0.00000903,-0.00003
 697,-0.00116697,0.00053987,-0.00037643,-0.00101287,0.01734491,-0.00050
 414,0.00063141,0.00079419,0.00015367,-0.00109308,0.00214388,0.00202956
 ,-0.04354277,-0.00938675,-0.00249603,-0.01505963,-0.03712044,0.0086536
 5,0.06372560,-0.00159350,0.00102575,-0.00133669,0.00024665,0.00008245,
 0.00239214,0.00016087,-0.00030919,0.00019296,0.00115740,-0.00005090,-0
 .00004465,-0.00000165,0.00022986,0.00016774,0.00027931,0.00042435,0.00
 008257,-0.00005277,-0.00044472,0.00016779,0.00014262,0.00002046,-0.000
 05194,-0.00022018,-0.00003152,-0.00028458,0.00004393,0.00007185,-0.000
 04354,-0.00003064,0.00000445,0.00000357,-0.00000194,0.00004600,-0.0000
 7636,-0.00006510,-0.00000642,0.00000332,0.00002229,0.00041670,-0.00001
 562,-0.00071560,-0.00014538,-0.00070238,0.00165907,-0.01429424,0.00319
 422,0.00005738,0.00171765,-0.00008897,0.00096935,-0.00062487,-0.002448
 68,-0.01562485,-0.30294297,0.04501341,-0.00637225,-0.00575914,0.001652
 59,0.01946344,0.32464164,0.00014288,0.00053374,-0.00023117,-0.00045669
 ,-0.00113131,-0.00069803,-0.00082085,-0.00022922,0.00000636,0.00169166
 ,-0.00047669,0.00000951,0.00010568,0.00029677,0.00006592,0.00000623,-0
 .00001029,-0.00020453,0.00003608,0.00015637,0.00030428,0.00001024,0.00
 001210,0.00046863,-0.00027879,0.00004228,-0.00034625,0.00002857,0.0000
 8880,0.00002083,-0.00009249,-0.00001956,0.00003312,0.00015843,-0.00006
 359,-0.00003788,0.00000424,-0.00000253,0.00002073,0.00003275,0.0001258
 8,0.00001334,-0.00002405,0.00014244,0.00024955,0.00152600,-0.02209552,
 0.00249941,-0.00029754,0.00002758,0.00155646,0.00142548,-0.00215339,-0
 .00180463,0.00083015,0.04638115,-0.05896774,-0.00081103,-0.00364064,0.
 00180613,-0.00598106,-0.04862235,0.06028340,0.00171102,0.00156502,-0.0
 0226206,-0.00436612,-0.00323936,0.00475070,-0.00003702,0.00031511,-0.0
 0019074,-0.00227575,0.00080963,0.00179969,-0.00014263,-0.00009442,0.00
 009190,0.00008368,-0.00045028,0.00014747,0.00012816,0.00042275,0.00018
 056,-0.00012334,-0.00038908,0.00088395,0.00065243,0.00041370,0.0006459
 9,0.00001559,-0.00000958,0.00003160,0.00005651,0.00010390,0.00000569,-
 0.00000730,-0.00008070,-0.00008183,0.00006603,-0.00008181,-0.00005404,
 0.00007871,-0.00003056,0.00001210,-0.00218200,0.00066657,-0.00265960,0
 .00607446,-0.00098082,0.01664726,-0.00079385,-0.00004010,0.00065318,0.
 00112427,-0.00011606,0.00011147,-0.06429484,0.00845060,-0.06283297,-0.
 01919481,0.00512908,-0.03611346,0.00168713,0.00021635,0.00286016,0.081
 66090,-0.00042223,0.00043640,-0.00153200,-0.00142416,-0.00099165,0.000
 74949,0.00010010,-0.00023561,0.00064134,0.00215251,-0.00130782,-0.0021
 4588,0.00016888,0.00026749,-0.00012283,-0.00039547,-0.00003154,-0.0003
 8072,0.00017875,0.00007236,-0.00003814,-0.00007884,0.00029333,0.000236
 22,-0.00058845,-0.00052415,-0.00070176,-0.00001280,0.00001020,0.000035
 52,-0.00004680,-0.00004516,0.00007990,0.00025165,-0.00025028,0.0000227
 1,0.00009480,-0.00001717,0.00019072,0.00000148,0.00020476,-0.00003919,
 -0.00085148,0.00043114,-0.00075750,-0.00407003,0.00179199,-0.01715083,
 0.00046756,-0.00018373,-0.00088599,-0.00059712,0.00119160,0.00022168,0
 .01283892,-0.05621984,0.04631117,-0.00530263,0.00119599,-0.01004242,0.
 00987179,-0.00439070,0.03048988,-0.01259073,0.05805077,0.00105500,0.00
 077549,0.00089232,0.00114734,-0.00013228,0.00160180,0.00043603,0.00013
 113,0.00052969,0.00264489,-0.00059135,-0.00146109,0.00012478,0.0002580
 0,-0.00015813,-0.00027976,-0.00006403,-0.00027751,0.00004000,0.0001115
 5,0.00035469,-0.00034698,-0.00059301,0.00043202,-0.00068014,-0.0006131
 5,-0.00060627,-0.00000709,-0.00005327,0.00003154,-0.00005311,-0.000075
 26,0.00010627,0.00019221,-0.00036924,0.00002226,0.00012877,-0.00001116
 ,0.00012436,-0.00003671,-0.00003925,0.00001632,-0.00052419,-0.00020068
 ,-0.00007486,-0.00441275,0.00322796,-0.01540353,0.00064898,-0.00098924
 ,-0.00122963,-0.00013679,-0.00011610,0.00165162,-0.07156928,0.04259109
 ,-0.28792083,-0.00291868,0.00052193,-0.00207947,-0.00110992,0.00140404
 ,-0.00443687,0.07556651,-0.04500159,0.30783704,-0.00006629,0.00002839,
 -0.00032644,-0.01085632,-0.01995469,-0.00285412,-0.10372104,-0.1127044
 7,0.02062644,0.01031209,0.01975713,-0.00569535,-0.00317957,0.00247633,
 -0.00104293,0.00022953,0.00048688,0.00021850,0.00002385,0.00001756,-0.
 00000077,0.00004076,-0.00004584,0.00006888,0.00075782,-0.00078458,0.00
 049286,0.00043788,0.00094034,-0.00036755,-0.00000784,0.00002597,0.0000
 7996,-0.00001828,-0.00002685,0.00001162,0.00008093,-0.00004773,-0.0001
 8355,-0.00679270,-0.01294358,0.00321032,-0.00249962,0.00355045,0.00383
 759,0.00172701,0.00104201,-0.00009393,-0.00016702,-0.00027606,0.000208
 80,0.00027980,0.00003070,0.00036587,0.00028083,-0.00074237,-0.00061366
 ,-0.00032833,0.00161206,0.00147986,0.00021287,0.00025983,-0.00009604,0
 .00007879,0.00025434,0.00009090,0.11317484,0.00026368,-0.00040339,0.00
 020720,0.00161773,0.00644344,0.00106273,-0.10775977,-0.23542662,0.0325
 0416,-0.01116835,-0.02004641,0.00530461,0.00424014,-0.00191172,0.00002
 293,-0.00012503,-0.00024681,-0.00014184,-0.00000152,0.00004863,-0.0000
 2718,-0.00008521,0.00001530,0.00006347,-0.00018344,0.00042156,-0.00066
 533,-0.00044710,-0.00118970,0.00073371,0.00027245,0.00051751,-0.000027
 58,0.00006300,-0.00004889,0.00017013,0.00001530,0.00001064,0.00023928,
 -0.00333331,-0.00642214,0.00119468,0.00136357,-0.00149078,-0.00021493,
 -0.00123471,0.00063339,-0.00132431,0.00087351,0.00025674,0.00034721,-0
 .00005412,0.00028553,-0.00046055,-0.00081713,0.00019224,-0.00015755,-0
 .00052438,-0.00062212,0.00000408,-0.00003030,0.00031889,0.00014809,0.0
 0001079,0.00025162,-0.00017157,0.11704420,0.25841308,-0.00017904,0.000
 20068,0.00078784,0.00837211,0.02366697,0.00193407,0.02154000,0.0353146
 8,-0.05439592,0.00232403,0.00705360,-0.00247317,-0.00173106,0.00083997
 ,0.00063285,0.00039157,-0.00009375,-0.00008572,-0.00003364,-0.00003638
 ,-0.00003695,-0.00005919,-0.00008621,-0.00008250,-0.00015980,-0.000311
 79,0.00011515,0.00027273,0.00044606,-0.00008722,0.00019988,0.00006838,
 0.00001004,-0.00002765,-0.00001558,0.00002220,-0.00002135,0.00006731,-
 0.00003069,-0.01247806,-0.02337572,0.00581803,0.00152844,-0.00230709,-
 0.00173740,0.00002954,0.00113869,-0.00029940,-0.00042257,-0.00011896,0
 .00009708,-0.00001258,-0.00016571,0.00020726,0.00056787,0.00143271,-0.
 00053321,-0.00030899,-0.00416804,-0.00348489,-0.00018146,-0.00055860,-
 0.00061057,-0.00019352,-0.00017981,0.00004827,-0.01941726,-0.03881143,
 0.05418486\\0.00002484,-0.00003679,-0.00000759,-0.00001206,0.00016491,
 -0.00003972,0.00004109,-0.00007072,0.00005016,-0.00001210,0.00002659,-
 0.00002667,-0.00001670,0.00002649,-0.00001153,-0.00002540,-0.00003164,
 0.00001173,-0.00001758,-0.00000205,0.00000177,-0.00000033,0.00000405,-
 0.00001714,0.00001269,-0.00000250,-0.00000857,-0.00000378,-0.00000963,
 -0.00000184,0.00001633,-0.00000008,0.00000561,0.00000019,-0.00000319,-
 0.00000234,0.00002569,0.00002799,0.00000673,-0.00000086,0.00000111,-0.
 00001023,-0.00000087,-0.00005676,0.00000539,0.00002379,-0.00000378,0.0
 0000147,-0.00001329,-0.00000690,0.00001070,0.00000037,0.00000613,0.000
 00174,0.00000677,0.00004114,-0.00002654,-0.00002910,-0.00006145,0.0000
 4479,0.00001593,0.00000755,0.00000732,-0.00001098,-0.00000696,-0.00001
 054,-0.00002464,-0.00001351,0.00001529\\\@


 BE NOT THE FIRST BY WHOM THE NEW ARE TRIED,
 NOR YET THE THE LAST TO LAY THE OLD ASIDE.

                          -- ALEXANDER POPE
 Job cpu time:       0 days  0 hours 47 minutes  8.9 seconds.
 Elapsed time:       0 days  0 hours 47 minutes  8.6 seconds.
 File lengths (MBytes):  RWF=    149 Int=      0 D2E=      0 Chk=      7 Scr=      1
 Normal termination of Gaussian 16 at Mon Apr 15 11:35:17 2019.
