 Entering Gaussian System, Link 0=g16
 Input=P2.com
 Output=P2.log
 Initial command:
 /opt/g16/l1.exe "/scratch/Grace/g03/Gau-20824.inp" -scrdir="/scratch/Grace/g03/"
 Entering Link 1 = /opt/g16/l1.exe PID=     20825.
  
 Copyright (c) 1988,1990,1992,1993,1995,1998,2003,2009,2016,
            Gaussian, Inc.  All Rights Reserved.
  
 This is part of the Gaussian(R) 16 program.  It is based on
 the Gaussian(R) 09 system (copyright 2009, Gaussian, Inc.),
 the Gaussian(R) 03 system (copyright 2003, Gaussian, Inc.),
 the Gaussian(R) 98 system (copyright 1998, Gaussian, Inc.),
 the Gaussian(R) 94 system (copyright 1995, Gaussian, Inc.),
 the Gaussian 92(TM) system (copyright 1992, Gaussian, Inc.),
 the Gaussian 90(TM) system (copyright 1990, Gaussian, Inc.),
 the Gaussian 88(TM) system (copyright 1988, Gaussian, Inc.),
 the Gaussian 86(TM) system (copyright 1986, Carnegie Mellon
 University), and the Gaussian 82(TM) system (copyright 1983,
 Carnegie Mellon University). Gaussian is a federally registered
 trademark of Gaussian, Inc.
  
 This software contains proprietary and confidential information,
 including trade secrets, belonging to Gaussian, Inc.
  
 This software is provided under written license and may be
 used, copied, transmitted, or stored only in accord with that
 written license.
  
 The following legend is applicable only to US Government
 contracts under FAR:
  
                    RESTRICTED RIGHTS LEGEND
  
 Use, reproduction and disclosure by the US Government is
 subject to restrictions as set forth in subparagraphs (a)
 and (c) of the Commercial Computer Software - Restricted
 Rights clause in FAR 52.227-19.
  
 Gaussian, Inc.
 340 Quinnipiac St., Bldg. 40, Wallingford CT 06492
  
  
 ---------------------------------------------------------------
 Warning -- This program may not be used in any manner that
 competes with the business of Gaussian, Inc. or will provide
 assistance to any competitor of Gaussian, Inc.  The licensee
 of this program is prohibited from giving any competitor of
 Gaussian, Inc. access to this program.  By using this program,
 the user acknowledges that Gaussian, Inc. is engaged in the
 business of creating and licensing software in the field of
 computational chemistry and represents and warrants to the
 licensee that it is not a competitor of Gaussian, Inc. and that
 it will not use this program in any manner prohibited above.
 ---------------------------------------------------------------
  

 Cite this work as:
 Gaussian 16, Revision A.03,
 M. J. Frisch, G. W. Trucks, H. B. Schlegel, G. E. Scuseria, 
 M. A. Robb, J. R. Cheeseman, G. Scalmani, V. Barone, 
 G. A. Petersson, H. Nakatsuji, X. Li, M. Caricato, A. V. Marenich, 
 J. Bloino, B. G. Janesko, R. Gomperts, B. Mennucci, H. P. Hratchian, 
 J. V. Ortiz, A. F. Izmaylov, J. L. Sonnenberg, D. Williams-Young, 
 F. Ding, F. Lipparini, F. Egidi, J. Goings, B. Peng, A. Petrone, 
 T. Henderson, D. Ranasinghe, V. G. Zakrzewski, J. Gao, N. Rega, 
 G. Zheng, W. Liang, M. Hada, M. Ehara, K. Toyota, R. Fukuda, 
 J. Hasegawa, M. Ishida, T. Nakajima, Y. Honda, O. Kitao, H. Nakai, 
 T. Vreven, K. Throssell, J. A. Montgomery, Jr., J. E. Peralta, 
 F. Ogliaro, M. J. Bearpark, J. J. Heyd, E. N. Brothers, K. N. Kudin, 
 V. N. Staroverov, T. A. Keith, R. Kobayashi, J. Normand, 
 K. Raghavachari, A. P. Rendell, J. C. Burant, S. S. Iyengar, 
 J. Tomasi, M. Cossi, J. M. Millam, M. Klene, C. Adamo, R. Cammi, 
 J. W. Ochterski, R. L. Martin, K. Morokuma, O. Farkas, 
 J. B. Foresman, and D. J. Fox, Gaussian, Inc., Wallingford CT, 2016.
 
 ******************************************
 Gaussian 16:  ES64L-G16RevA.03 25-Dec-2016
                15-Apr-2019 
 ******************************************
 ------------------------------------------
 #B3LYP/6-31+G(d,p) OPT Freq=hpmodes Nosymm
 ------------------------------------------
 1/18=20,19=15,26=3,38=1/1,3;
 2/9=110,12=2,15=1,17=6,18=5,40=1/2;
 3/5=1,6=6,7=111,11=2,25=1,30=1,71=1,74=-5/1,2,3;
 4//1;
 5/5=2,38=5/2;
 6/7=2,8=2,9=2,10=2,28=1/1;
 7/30=1/1,2,3,16;
 1/18=20,19=15,26=3/3(2);
 2/9=110,15=1/2;
 99//99;
 2/9=110,15=1/2;
 3/5=1,6=6,7=111,11=2,25=1,30=1,71=1,74=-5/1,2,3;
 4/5=5,16=3,69=1/1;
 5/5=2,38=5/2;
 7/30=1/1,2,3,16;
 1/18=20,19=15,26=3/3(-5);
 2/9=110,15=1/2;
 6/7=2,8=2,9=2,10=2,19=2,28=1/1;
 99/9=1/99;
 --------------------------------------------------------------
 the last point of TS1 forward direction in its IRC calculation
 --------------------------------------------------------------
 Symbolic Z-matrix:
 Charge =  0 Multiplicity = 1
 C                     1.25896   0.83024  -1.08527 
 C                     1.34168  -0.49011  -0.30681 
 C                    -0.32808  -0.75166   1.38566 
 C                    -1.3088    0.39019   1.04957 
 C                    -0.58914   1.69567   0.61312 
 C                     0.02728   1.73003  -0.80774 
 H                     2.18252   1.35132  -0.81694 
 H                     1.33683   0.62882  -2.16153 
 H                    -1.95518   0.61796   1.90586 
 H                    -1.32531   2.50859   0.6547 
 H                     0.18127   1.94676   1.35591 
 H                    -0.76205   1.52462  -1.53823 
 H                     0.33648   2.76315  -1.00619 
 H                     0.51683  -0.46161   2.01456 
 O                     2.41711  -0.88711   0.10517 
 C                    -2.10311  -0.25489  -0.10623 
 H                    -2.8882   -0.90553   0.29324 
 H                    -2.58968   0.47794  -0.75751 
 C                    -1.02711  -1.10151  -0.84951 
 N                     0.14876  -1.17823   0.0462 
 H                    -1.38395  -2.12016  -1.0365 
 H                    -0.74368  -0.68331  -1.81926 
 H                    -0.84867  -1.58319   1.87747 
 

 GradGradGradGradGradGradGradGradGradGradGradGradGradGradGradGradGradGrad
 Berny optimization.
 Initialization pass.
                           ----------------------------
                           !    Initial Parameters    !
                           ! (Angstroms and Degrees)  !
 --------------------------                            --------------------------
 ! Name  Definition              Value          Derivative Info.                !
 --------------------------------------------------------------------------------
 ! R1    R(1,2)                  1.535          estimate D2E/DX2                !
 ! R2    R(1,6)                  1.5504         estimate D2E/DX2                !
 ! R3    R(1,7)                  1.0938         estimate D2E/DX2                !
 ! R4    R(1,8)                  1.0977         estimate D2E/DX2                !
 ! R5    R(2,15)                 1.2181         estimate D2E/DX2                !
 ! R6    R(2,20)                 1.4217         estimate D2E/DX2                !
 ! R7    R(3,4)                  1.5423         estimate D2E/DX2                !
 ! R8    R(3,14)                 1.0925         estimate D2E/DX2                !
 ! R9    R(3,20)                 1.4844         estimate D2E/DX2                !
 ! R10   R(3,23)                 1.0974         estimate D2E/DX2                !
 ! R11   R(4,5)                  1.5533         estimate D2E/DX2                !
 ! R12   R(4,9)                  1.0968         estimate D2E/DX2                !
 ! R13   R(4,16)                 1.5437         estimate D2E/DX2                !
 ! R14   R(5,6)                  1.5492         estimate D2E/DX2                !
 ! R15   R(5,10)                 1.0975         estimate D2E/DX2                !
 ! R16   R(5,11)                 1.0992         estimate D2E/DX2                !
 ! R17   R(6,12)                 1.0949         estimate D2E/DX2                !
 ! R18   R(6,13)                 1.0965         estimate D2E/DX2                !
 ! R19   R(16,17)                1.0951         estimate D2E/DX2                !
 ! R20   R(16,18)                1.0945         estimate D2E/DX2                !
 ! R21   R(16,19)                1.5579         estimate D2E/DX2                !
 ! R22   R(19,20)                1.4802         estimate D2E/DX2                !
 ! R23   R(19,21)                1.0954         estimate D2E/DX2                !
 ! R24   R(19,22)                1.0935         estimate D2E/DX2                !
 ! A1    A(2,1,6)              116.8235         estimate D2E/DX2                !
 ! A2    A(2,1,7)              103.8781         estimate D2E/DX2                !
 ! A3    A(2,1,8)              109.6077         estimate D2E/DX2                !
 ! A4    A(6,1,7)              110.5103         estimate D2E/DX2                !
 ! A5    A(6,1,8)              109.7772         estimate D2E/DX2                !
 ! A6    A(7,1,8)              105.5471         estimate D2E/DX2                !
 ! A7    A(1,2,15)             119.9622         estimate D2E/DX2                !
 ! A8    A(1,2,20)             119.8047         estimate D2E/DX2                !
 ! A9    A(15,2,20)            119.9381         estimate D2E/DX2                !
 ! A10   A(4,3,14)             114.8768         estimate D2E/DX2                !
 ! A11   A(4,3,20)             102.7316         estimate D2E/DX2                !
 ! A12   A(4,3,23)             110.916          estimate D2E/DX2                !
 ! A13   A(14,3,20)            110.3226         estimate D2E/DX2                !
 ! A14   A(14,3,23)            108.0632         estimate D2E/DX2                !
 ! A15   A(20,3,23)            109.818          estimate D2E/DX2                !
 ! A16   A(3,4,5)              112.8842         estimate D2E/DX2                !
 ! A17   A(3,4,9)              111.0008         estimate D2E/DX2                !
 ! A18   A(3,4,16)             100.4269         estimate D2E/DX2                !
 ! A19   A(5,4,9)              108.5353         estimate D2E/DX2                !
 ! A20   A(5,4,16)             112.2863         estimate D2E/DX2                !
 ! A21   A(9,4,16)             111.5977         estimate D2E/DX2                !
 ! A22   A(4,5,6)              117.4327         estimate D2E/DX2                !
 ! A23   A(4,5,10)             107.5242         estimate D2E/DX2                !
 ! A24   A(4,5,11)             109.0764         estimate D2E/DX2                !
 ! A25   A(6,5,10)             106.572          estimate D2E/DX2                !
 ! A26   A(6,5,11)             109.6225         estimate D2E/DX2                !
 ! A27   A(10,5,11)            105.9809         estimate D2E/DX2                !
 ! A28   A(1,6,5)              117.8668         estimate D2E/DX2                !
 ! A29   A(1,6,12)             110.1452         estimate D2E/DX2                !
 ! A30   A(1,6,13)             106.882          estimate D2E/DX2                !
 ! A31   A(5,6,12)             108.7169         estimate D2E/DX2                !
 ! A32   A(5,6,13)             107.4033         estimate D2E/DX2                !
 ! A33   A(12,6,13)            105.0275         estimate D2E/DX2                !
 ! A34   A(4,16,17)            110.124          estimate D2E/DX2                !
 ! A35   A(4,16,18)            113.2341         estimate D2E/DX2                !
 ! A36   A(4,16,19)            103.234          estimate D2E/DX2                !
 ! A37   A(17,16,18)           107.2263         estimate D2E/DX2                !
 ! A38   A(17,16,19)           110.2615         estimate D2E/DX2                !
 ! A39   A(18,16,19)           112.7683         estimate D2E/DX2                !
 ! A40   A(16,19,20)           106.7467         estimate D2E/DX2                !
 ! A41   A(16,19,21)           111.2112         estimate D2E/DX2                !
 ! A42   A(16,19,22)           113.223          estimate D2E/DX2                !
 ! A43   A(20,19,21)           108.2939         estimate D2E/DX2                !
 ! A44   A(20,19,22)           110.5231         estimate D2E/DX2                !
 ! A45   A(21,19,22)           106.7807         estimate D2E/DX2                !
 ! A46   A(2,20,3)             110.7633         estimate D2E/DX2                !
 ! A47   A(2,20,19)            119.4227         estimate D2E/DX2                !
 ! A48   A(3,20,19)            106.0193         estimate D2E/DX2                !
 ! D1    D(6,1,2,15)          -141.4443         estimate D2E/DX2                !
 ! D2    D(6,1,2,20)            32.3141         estimate D2E/DX2                !
 ! D3    D(7,1,2,15)           -19.4822         estimate D2E/DX2                !
 ! D4    D(7,1,2,20)           154.2762         estimate D2E/DX2                !
 ! D5    D(8,1,2,15)            92.9197         estimate D2E/DX2                !
 ! D6    D(8,1,2,20)           -93.3219         estimate D2E/DX2                !
 ! D7    D(2,1,6,5)             31.3568         estimate D2E/DX2                !
 ! D8    D(2,1,6,12)           -94.136          estimate D2E/DX2                !
 ! D9    D(2,1,6,13)           152.2891         estimate D2E/DX2                !
 ! D10   D(7,1,6,5)            -87.076          estimate D2E/DX2                !
 ! D11   D(7,1,6,12)           147.4311         estimate D2E/DX2                !
 ! D12   D(7,1,6,13)            33.8563         estimate D2E/DX2                !
 ! D13   D(8,1,6,5)            156.908          estimate D2E/DX2                !
 ! D14   D(8,1,6,12)            31.4152         estimate D2E/DX2                !
 ! D15   D(8,1,6,13)           -82.1597         estimate D2E/DX2                !
 ! D16   D(1,2,20,3)           -91.195          estimate D2E/DX2                !
 ! D17   D(1,2,20,19)           32.3548         estimate D2E/DX2                !
 ! D18   D(15,2,20,3)           82.5649         estimate D2E/DX2                !
 ! D19   D(15,2,20,19)        -153.8853         estimate D2E/DX2                !
 ! D20   D(14,3,4,5)            45.7424         estimate D2E/DX2                !
 ! D21   D(14,3,4,9)           -76.3733         estimate D2E/DX2                !
 ! D22   D(14,3,4,16)          165.4925         estimate D2E/DX2                !
 ! D23   D(20,3,4,5)           -74.0754         estimate D2E/DX2                !
 ! D24   D(20,3,4,9)           163.809          estimate D2E/DX2                !
 ! D25   D(20,3,4,16)           45.6748         estimate D2E/DX2                !
 ! D26   D(23,3,4,5)           168.6375         estimate D2E/DX2                !
 ! D27   D(23,3,4,9)            46.5218         estimate D2E/DX2                !
 ! D28   D(23,3,4,16)          -71.6124         estimate D2E/DX2                !
 ! D29   D(4,3,20,2)            92.7011         estimate D2E/DX2                !
 ! D30   D(4,3,20,19)          -38.2526         estimate D2E/DX2                !
 ! D31   D(14,3,20,2)          -30.2265         estimate D2E/DX2                !
 ! D32   D(14,3,20,19)        -161.1802         estimate D2E/DX2                !
 ! D33   D(23,3,20,2)         -149.2346         estimate D2E/DX2                !
 ! D34   D(23,3,20,19)          79.8117         estimate D2E/DX2                !
 ! D35   D(3,4,5,6)             74.6913         estimate D2E/DX2                !
 ! D36   D(3,4,5,10)          -165.2491         estimate D2E/DX2                !
 ! D37   D(3,4,5,11)           -50.7494         estimate D2E/DX2                !
 ! D38   D(9,4,5,6)           -161.8182         estimate D2E/DX2                !
 ! D39   D(9,4,5,10)           -41.7586         estimate D2E/DX2                !
 ! D40   D(9,4,5,11)            72.7412         estimate D2E/DX2                !
 ! D41   D(16,4,5,6)           -37.9709         estimate D2E/DX2                !
 ! D42   D(16,4,5,10)           82.0887         estimate D2E/DX2                !
 ! D43   D(16,4,5,11)         -163.4115         estimate D2E/DX2                !
 ! D44   D(3,4,16,17)           82.1727         estimate D2E/DX2                !
 ! D45   D(3,4,16,18)         -157.7911         estimate D2E/DX2                !
 ! D46   D(3,4,16,19)          -35.5412         estimate D2E/DX2                !
 ! D47   D(5,4,16,17)         -157.6457         estimate D2E/DX2                !
 ! D48   D(5,4,16,18)          -37.6096         estimate D2E/DX2                !
 ! D49   D(5,4,16,19)           84.6403         estimate D2E/DX2                !
 ! D50   D(9,4,16,17)          -35.5222         estimate D2E/DX2                !
 ! D51   D(9,4,16,18)           84.5139         estimate D2E/DX2                !
 ! D52   D(9,4,16,19)         -153.2361         estimate D2E/DX2                !
 ! D53   D(4,5,6,1)            -68.7213         estimate D2E/DX2                !
 ! D54   D(4,5,6,12)            57.4691         estimate D2E/DX2                !
 ! D55   D(4,5,6,13)           170.6161         estimate D2E/DX2                !
 ! D56   D(10,5,6,1)           170.7196         estimate D2E/DX2                !
 ! D57   D(10,5,6,12)          -63.09           estimate D2E/DX2                !
 ! D58   D(10,5,6,13)           50.057          estimate D2E/DX2                !
 ! D59   D(11,5,6,1)            56.4486         estimate D2E/DX2                !
 ! D60   D(11,5,6,12)         -177.3611         estimate D2E/DX2                !
 ! D61   D(11,5,6,13)          -64.214          estimate D2E/DX2                !
 ! D62   D(4,16,19,20)          13.5594         estimate D2E/DX2                !
 ! D63   D(4,16,19,21)         131.4895         estimate D2E/DX2                !
 ! D64   D(4,16,19,22)        -108.2774         estimate D2E/DX2                !
 ! D65   D(17,16,19,20)       -104.0581         estimate D2E/DX2                !
 ! D66   D(17,16,19,21)         13.872          estimate D2E/DX2                !
 ! D67   D(17,16,19,22)        134.1051         estimate D2E/DX2                !
 ! D68   D(18,16,19,20)        136.1208         estimate D2E/DX2                !
 ! D69   D(18,16,19,21)       -105.9491         estimate D2E/DX2                !
 ! D70   D(18,16,19,22)         14.284          estimate D2E/DX2                !
 ! D71   D(16,19,20,2)        -110.597          estimate D2E/DX2                !
 ! D72   D(16,19,20,3)          15.2326         estimate D2E/DX2                !
 ! D73   D(21,19,20,2)         129.5733         estimate D2E/DX2                !
 ! D74   D(21,19,20,3)        -104.5971         estimate D2E/DX2                !
 ! D75   D(22,19,20,2)          12.9294         estimate D2E/DX2                !
 ! D76   D(22,19,20,3)         138.759          estimate D2E/DX2                !
 --------------------------------------------------------------------------------
 Trust Radius=3.00D-01 FncErr=1.00D-07 GrdErr=1.00D-06 EigMax=2.50D+02 EigMin=1.00D-04
 Number of steps in this run=    138 maximum allowed number of steps=    138.
 GradGradGradGradGradGradGradGradGradGradGradGradGradGradGradGradGradGrad

                          Input orientation:                          
 ---------------------------------------------------------------------
 Center     Atomic      Atomic             Coordinates (Angstroms)
 Number     Number       Type             X           Y           Z
 ---------------------------------------------------------------------
      1          6           0        1.258960    0.830236   -1.085273
      2          6           0        1.341683   -0.490114   -0.306812
      3          6           0       -0.328079   -0.751662    1.385662
      4          6           0       -1.308797    0.390188    1.049570
      5          6           0       -0.589137    1.695667    0.613116
      6          6           0        0.027283    1.730026   -0.807735
      7          1           0        2.182519    1.351318   -0.816944
      8          1           0        1.336831    0.628815   -2.161534
      9          1           0       -1.955179    0.617958    1.905855
     10          1           0       -1.325307    2.508587    0.654699
     11          1           0        0.181274    1.946761    1.355911
     12          1           0       -0.762049    1.524620   -1.538234
     13          1           0        0.336478    2.763145   -1.006192
     14          1           0        0.516829   -0.461605    2.014558
     15          8           0        2.417110   -0.887108    0.105170
     16          6           0       -2.103109   -0.254887   -0.106229
     17          1           0       -2.888203   -0.905531    0.293235
     18          1           0       -2.589681    0.477936   -0.757510
     19          6           0       -1.027110   -1.101514   -0.849511
     20          7           0        0.148764   -1.178232    0.046196
     21          1           0       -1.383951   -2.120161   -1.036500
     22          1           0       -0.743680   -0.683306   -1.819258
     23          1           0       -0.848665   -1.583189    1.877473
 ---------------------------------------------------------------------
                    Distance matrix (angstroms):
                    1          2          3          4          5
     1  C    0.000000
     2  C    1.534982   0.000000
     3  C    3.335658   2.391857   0.000000
     4  C    3.368171   3.104794   1.542267   0.000000
     5  C    2.654987   3.058099   2.579612   1.553280   0.000000
     6  C    1.550380   2.628230   3.331073   2.651388   1.549184
     7  H    1.093841   2.087609   3.946784   4.073933   3.137790
     8  H    1.097712   2.166107   4.154545   4.167431   3.542063
     9  H    4.395748   4.122259   2.189501   1.096774   2.167649
    10  H    3.538757   4.126687   3.486832   2.154950   1.097504
    11  H    2.892648   3.170104   2.746236   2.176482   1.099239
    12  H    2.184450   3.162474   3.730812   2.877950   2.165055
    13  H    2.143213   3.476099   4.303077   3.544575   2.149053
    14  H    3.439268   2.463728   1.092480   2.233755   2.800183
    15  O    2.389087   1.218145   3.032172   4.050402   3.995780
    16  C    3.665996   3.458635   2.371340   1.543672   2.571814
    17  H    4.702354   4.292384   2.787706   2.178406   3.486296
    18  H    3.878606   4.073803   3.349618   2.216732   2.713607
    19  C    3.002225   2.505896   2.367919   2.431261   3.186741
    20  N    2.558652   1.421681   1.484423   2.364569   3.020793
    21  H    3.961338   3.258616   2.975655   3.264841   4.232435
    22  H    2.615360   2.583322   3.232477   3.114791   3.405854
    23  H    4.364008   3.280783   1.097417   2.188918   3.523755
                    6          7          8          9         10
     6  C    0.000000
     7  H    2.188275   0.000000
     8  H    2.181823   1.745028   0.000000
     9  H    3.539834   5.007194   5.232695   0.000000
    10  H    2.138778   3.976160   4.307167   2.353000   0.000000
    11  H    2.179920   3.013442   3.929976   2.575381   1.754176
    12  H    1.094927   3.036573   2.365643   3.755974   2.468685
    13  H    1.096504   2.331724   2.625050   4.281768   2.363237
    14  H    3.606694   3.752148   4.393309   2.699647   3.750296
    15  O    3.659789   2.432258   2.933082   4.962318   5.083150
    16  C    2.995089   4.631589   4.103461   2.198232   2.969979
    17  H    4.081465   5.660220   5.121623   2.406677   3.772201
    18  H    2.901509   4.851827   4.172714   2.741480   2.777862
    19  C    3.021772   4.039698   3.209931   3.377860   3.922295
    20  N    3.033467   3.358540   3.090468   3.333348   4.016939
    21  H    4.107049   4.981875   4.028055   4.059686   4.928377
    22  H    2.727954   3.702292   2.483413   4.127649   4.080065
    23  H    4.353736   5.005926   5.097346   2.463783   4.297091
                   11         12         13         14         15
    11  H    0.000000
    12  H    3.073131   0.000000
    13  H    2.504017   1.738900   0.000000
    14  H    2.519254   4.266491   4.422270   0.000000
    15  O    3.820226   4.315583   4.346090   2.727248   0.000000
    16  C    3.493353   2.648721   3.983721   3.377062   4.569111
    17  H    4.322793   3.712202   5.054331   3.841128   5.308677
    18  H    3.781823   2.246178   3.721079   4.268197   5.260753
    19  C    3.951716   2.727852   4.101160   3.316040   3.580508
    20  N    3.388509   3.262730   4.083774   2.126846   2.287712
    21  H    4.971259   3.731344   5.177593   3.958880   4.155947
    22  H    4.225457   2.225814   3.702140   4.041804   3.706151
    23  H    3.713940   4.618770   5.348898   1.772376   3.780327
                   16         17         18         19         20
    16  C    0.000000
    17  H    1.095117   0.000000
    18  H    1.094508   1.762714   0.000000
    19  C    1.557889   2.192703   2.223680   0.000000
    20  N    2.438592   3.059177   3.299684   1.480154   0.000000
    21  H    2.204958   2.346550   2.877799   1.095419   2.099685
    22  H    2.228465   3.018442   2.425595   1.093453   2.126341
    23  H    2.696867   2.669971   3.771274   2.774941   2.124248
                   21         22         23
    21  H    0.000000
    22  H    1.757046   0.000000
    23  H    3.010998   3.806131   0.000000
 Symmetry turned off by external request.
 Stoichiometry    C8H13NO
 Framework group  C1[X(C8H13NO)]
 Deg. of freedom    63
 Full point group                 C1      NOp   1
 Rotational constants (GHZ):           1.9539250           1.4165988           1.1510324
 Standard basis: 6-31+G(d,p) (6D, 7F)
   255 basis functions,   411 primitive gaussians,   255 cartesian basis functions
    38 alpha electrons       38 beta electrons
       nuclear repulsion energy       578.1093183984 Hartrees.
 NAtoms=   23 NActive=   23 NUniq=   23 SFac= 1.00D+00 NAtFMM=   60 NAOKFM=F Big=F
 Integral buffers will be    131072 words long.
 Raffenetti 2 integral format.
 Two-electron integral symmetry is turned off.
 One-electron integrals computed using PRISM.
 NBasis=   255 RedAO= T EigKep=  1.41D-05  NBF=   255
 NBsUse=   255 1.00D-06 EigRej= -1.00D+00 NBFU=   255
 ExpMin= 4.38D-02 ExpMax= 5.48D+03 ExpMxC= 8.25D+02 IAcc=3 IRadAn=         5 AccDes= 0.00D+00
 Harris functional with IExCor=  402 and IRadAn=       5 diagonalized for initial guess.
 HarFok:  IExCor=  402 AccDes= 0.00D+00 IRadAn=         5 IDoV= 1 UseB2=F ITyADJ=14
 ICtDFT=  3500011 ScaDFX=  1.000000  1.000000  1.000000  1.000000
 FoFCou: FMM=F IPFlag=           0 FMFlag=      100000 FMFlg1=           0
         NFxFlg=           0 DoJE=T BraDBF=F KetDBF=T FulRan=T
         wScrn=  0.000000 ICntrl=       500 IOpCl=  0 I1Cent=   200000004 NGrid=           0
         NMat0=    1 NMatS0=      1 NMatT0=    0 NMatD0=    1 NMtDS0=    0 NMtDT0=    0
 Symmetry not used in FoFCou.
 Requested convergence on RMS density matrix=1.00D-08 within 128 cycles.
 Requested convergence on MAX density matrix=1.00D-06.
 Requested convergence on             energy=1.00D-06.
 No special actions if energy rises.
 SCF Done:  E(RB3LYP) =  -442.669611118     A.U. after   13 cycles
            NFock= 13  Conv=0.46D-08     -V/T= 2.0097

 **********************************************************************

            Population analysis using the SCF density.

 **********************************************************************

 Alpha  occ. eigenvalues --  -19.13782 -14.34527 -10.29611 -10.22440 -10.22390
 Alpha  occ. eigenvalues --  -10.20476 -10.20323 -10.20241 -10.19990 -10.19811
 Alpha  occ. eigenvalues --   -1.04741  -0.94213  -0.81286  -0.78928  -0.74489
 Alpha  occ. eigenvalues --   -0.69665  -0.65368  -0.61834  -0.56283  -0.54406
 Alpha  occ. eigenvalues --   -0.51041  -0.48827  -0.48016  -0.45082  -0.43930
 Alpha  occ. eigenvalues --   -0.43322  -0.41631  -0.40973  -0.40060  -0.37746
 Alpha  occ. eigenvalues --   -0.36945  -0.35992  -0.34728  -0.34039  -0.33579
 Alpha  occ. eigenvalues --   -0.32348  -0.25811  -0.23572
 Alpha virt. eigenvalues --   -0.01953  -0.00660   0.00738   0.01266   0.02029
 Alpha virt. eigenvalues --    0.03547   0.03697   0.04226   0.04660   0.05235
 Alpha virt. eigenvalues --    0.06918   0.07933   0.08323   0.08548   0.09047
 Alpha virt. eigenvalues --    0.09506   0.09727   0.11273   0.11705   0.12541
 Alpha virt. eigenvalues --    0.12650   0.12996   0.13511   0.13970   0.14828
 Alpha virt. eigenvalues --    0.15560   0.16197   0.17089   0.17425   0.18269
 Alpha virt. eigenvalues --    0.18351   0.19108   0.19475   0.19651   0.19731
 Alpha virt. eigenvalues --    0.20747   0.21503   0.22421   0.23028   0.23519
 Alpha virt. eigenvalues --    0.25007   0.25509   0.26580   0.27683   0.27831
 Alpha virt. eigenvalues --    0.29240   0.29862   0.30184   0.30853   0.31807
 Alpha virt. eigenvalues --    0.32411   0.33491   0.34259   0.35073   0.35498
 Alpha virt. eigenvalues --    0.37144   0.37545   0.38403   0.39035   0.39816
 Alpha virt. eigenvalues --    0.40692   0.44009   0.44176   0.46367   0.50180
 Alpha virt. eigenvalues --    0.58771   0.61806   0.62628   0.64869   0.66044
 Alpha virt. eigenvalues --    0.67450   0.68021   0.69033   0.69800   0.72915
 Alpha virt. eigenvalues --    0.74938   0.76017   0.76479   0.78761   0.79468
 Alpha virt. eigenvalues --    0.80857   0.82314   0.83983   0.85878   0.88697
 Alpha virt. eigenvalues --    0.89926   0.91940   0.93141   0.94621   0.97479
 Alpha virt. eigenvalues --    0.98134   0.99668   0.99880   1.01554   1.03583
 Alpha virt. eigenvalues --    1.05383   1.05720   1.08186   1.09501   1.11409
 Alpha virt. eigenvalues --    1.12010   1.14491   1.14998   1.16779   1.18322
 Alpha virt. eigenvalues --    1.23922   1.26464   1.29258   1.31445   1.34085
 Alpha virt. eigenvalues --    1.37013   1.39095   1.41418   1.43884   1.47145
 Alpha virt. eigenvalues --    1.48955   1.51617   1.55653   1.56687   1.58914
 Alpha virt. eigenvalues --    1.61415   1.64495   1.68029   1.68057   1.72437
 Alpha virt. eigenvalues --    1.74304   1.75790   1.79207   1.80641   1.81579
 Alpha virt. eigenvalues --    1.82864   1.83571   1.85640   1.88112   1.90432
 Alpha virt. eigenvalues --    1.92069   1.94076   1.95970   1.98933   2.00328
 Alpha virt. eigenvalues --    2.01661   2.04573   2.05135   2.07617   2.10469
 Alpha virt. eigenvalues --    2.11861   2.12976   2.15551   2.17204   2.21510
 Alpha virt. eigenvalues --    2.22821   2.23989   2.26194   2.29467   2.31097
 Alpha virt. eigenvalues --    2.32055   2.34358   2.35846   2.37271   2.38694
 Alpha virt. eigenvalues --    2.41456   2.42516   2.43688   2.45299   2.46877
 Alpha virt. eigenvalues --    2.50716   2.52988   2.55348   2.56640   2.57672
 Alpha virt. eigenvalues --    2.59712   2.60726   2.62543   2.64775   2.67081
 Alpha virt. eigenvalues --    2.68793   2.69947   2.72758   2.74632   2.77629
 Alpha virt. eigenvalues --    2.79805   2.81556   2.82161   2.82607   2.85205
 Alpha virt. eigenvalues --    2.86238   2.89450   2.91184   2.93684   2.95677
 Alpha virt. eigenvalues --    3.00644   3.04131   3.09790   3.21469   3.28200
 Alpha virt. eigenvalues --    3.31515   3.32231   3.36153   3.37100   3.38323
 Alpha virt. eigenvalues --    3.43580   3.45482   3.48723   3.51459   3.52483
 Alpha virt. eigenvalues --    3.57367   3.58197   4.27813   4.38653   4.41174
 Alpha virt. eigenvalues --    4.44777   4.53662   4.63787   4.72211   4.76724
 Alpha virt. eigenvalues --    4.85480   4.87940
          Condensed to atoms (all electrons):
               1          2          3          4          5          6
     1  C    6.195566  -0.321458   0.223358  -0.192797  -0.090150  -0.003201
     2  C   -0.321458   6.059204  -0.522382   0.435476  -0.122231   0.057659
     3  C    0.223358  -0.522382   5.806966  -0.214009   0.064026  -0.093681
     4  C   -0.192797   0.435476  -0.214009   6.718003  -0.169831  -0.102363
     5  C   -0.090150  -0.122231   0.064026  -0.169831   5.605431   0.185246
     6  C   -0.003201   0.057659  -0.093681  -0.102363   0.185246   5.524730
     7  H    0.418176  -0.035178   0.010607  -0.015027   0.005274  -0.057108
     8  H    0.368644  -0.017279  -0.002239  -0.002057   0.015675  -0.053943
     9  H   -0.002167  -0.005896  -0.002115   0.235126   0.010095   0.021587
    10  H    0.044536  -0.021794   0.029834  -0.055967   0.411231  -0.075799
    11  H   -0.009352   0.015203  -0.012099  -0.053597   0.420602  -0.050793
    12  H   -0.062449   0.018426  -0.003222   0.002169  -0.066564   0.427808
    13  H   -0.033735   0.022330  -0.002564   0.019563  -0.044775   0.371588
    14  H   -0.004263   0.027849   0.392702   0.005394  -0.038666   0.003505
    15  O   -0.199557   0.526151  -0.056296   0.012704  -0.020492   0.029977
    16  C   -0.054041   0.000096   0.066280  -0.037433   0.005862   0.016290
    17  H    0.004956  -0.004066   0.020043  -0.075357   0.007455  -0.004534
    18  H   -0.003166  -0.000324   0.015181  -0.067603   0.009140  -0.010215
    19  C    0.041535  -0.000361  -0.214556   0.054466  -0.058125  -0.042843
    20  N   -0.160865  -0.095082   0.381091  -0.562169   0.165227   0.066447
    21  H   -0.002735  -0.009148  -0.002783  -0.007060   0.006953   0.000889
    22  H    0.003021   0.008535  -0.001200   0.033971  -0.009664  -0.005523
    23  H    0.003713  -0.016543   0.435482  -0.121356   0.030134   0.000863
               7          8          9         10         11         12
     1  C    0.418176   0.368644  -0.002167   0.044536  -0.009352  -0.062449
     2  C   -0.035178  -0.017279  -0.005896  -0.021794   0.015203   0.018426
     3  C    0.010607  -0.002239  -0.002115   0.029834  -0.012099  -0.003222
     4  C   -0.015027  -0.002057   0.235126  -0.055967  -0.053597   0.002169
     5  C    0.005274   0.015675   0.010095   0.411231   0.420602  -0.066564
     6  C   -0.057108  -0.053943   0.021587  -0.075799  -0.050793   0.427808
     7  H    0.521182  -0.023481   0.000001  -0.000044   0.001438   0.004559
     8  H   -0.023481   0.542350   0.000004  -0.000136  -0.000011  -0.007821
     9  H    0.000001   0.000004   0.597917  -0.007433  -0.000936  -0.000027
    10  H   -0.000044  -0.000136  -0.007433   0.583085  -0.029784  -0.002808
    11  H    0.001438  -0.000011  -0.000936  -0.029784   0.576922   0.005175
    12  H    0.004559  -0.007821  -0.000027  -0.002808   0.005175   0.592000
    13  H   -0.007598   0.000383  -0.000105  -0.004925  -0.002994  -0.030764
    14  H   -0.000048  -0.000021  -0.000164   0.000135   0.003018   0.000012
    15  O   -0.008306   0.000521  -0.000018   0.000094  -0.000743  -0.000614
    16  C    0.007086  -0.000108   0.001980  -0.010817   0.010583   0.005013
    17  H    0.000001  -0.000002  -0.005204  -0.000038  -0.000123   0.000037
    18  H   -0.000005   0.000025   0.000712   0.001681   0.000137   0.001520
    19  C   -0.009116   0.008241   0.004610   0.003086  -0.004569  -0.012118
    20  N    0.008131   0.004330   0.024339  -0.003342  -0.011534  -0.005785
    21  H    0.000000   0.000091  -0.000010  -0.000002   0.000012   0.000177
    22  H    0.000144  -0.001666  -0.000190   0.000052  -0.000005   0.001332
    23  H    0.000008   0.000006  -0.001040  -0.000177   0.000218  -0.000002
              13         14         15         16         17         18
     1  C   -0.033735  -0.004263  -0.199557  -0.054041   0.004956  -0.003166
     2  C    0.022330   0.027849   0.526151   0.000096  -0.004066  -0.000324
     3  C   -0.002564   0.392702  -0.056296   0.066280   0.020043   0.015181
     4  C    0.019563   0.005394   0.012704  -0.037433  -0.075357  -0.067603
     5  C   -0.044775  -0.038666  -0.020492   0.005862   0.007455   0.009140
     6  C    0.371588   0.003505   0.029977   0.016290  -0.004534  -0.010215
     7  H   -0.007598  -0.000048  -0.008306   0.007086   0.000001  -0.000005
     8  H    0.000383  -0.000021   0.000521  -0.000108  -0.000002   0.000025
     9  H   -0.000105  -0.000164  -0.000018   0.001980  -0.005204   0.000712
    10  H   -0.004925   0.000135   0.000094  -0.010817  -0.000038   0.001681
    11  H   -0.002994   0.003018  -0.000743   0.010583  -0.000123   0.000137
    12  H   -0.030764   0.000012  -0.000614   0.005013   0.000037   0.001520
    13  H    0.570904  -0.000008  -0.000559  -0.001341  -0.000001  -0.000022
    14  H   -0.000008   0.536251  -0.001265   0.006909  -0.000058  -0.000148
    15  O   -0.000559  -0.001265   8.154850  -0.008975   0.000057   0.000076
    16  C   -0.001341   0.006909  -0.008975   5.564964   0.445799   0.421963
    17  H   -0.000001  -0.000058   0.000057   0.445799   0.559732  -0.029887
    18  H   -0.000022  -0.000148   0.000076   0.421963  -0.029887   0.561124
    19  C    0.002781   0.005799   0.013994   0.102750  -0.074074  -0.049419
    20  N   -0.002227  -0.068211  -0.054155   0.014572   0.010343   0.008016
    21  H   -0.000004  -0.000128   0.000199  -0.047468  -0.008440   0.003677
    22  H    0.000159  -0.000159   0.000134  -0.063254   0.003804  -0.007360
    23  H    0.000003  -0.027020   0.001610   0.002936   0.001293   0.000120
              19         20         21         22         23
     1  C    0.041535  -0.160865  -0.002735   0.003021   0.003713
     2  C   -0.000361  -0.095082  -0.009148   0.008535  -0.016543
     3  C   -0.214556   0.381091  -0.002783  -0.001200   0.435482
     4  C    0.054466  -0.562169  -0.007060   0.033971  -0.121356
     5  C   -0.058125   0.165227   0.006953  -0.009664   0.030134
     6  C   -0.042843   0.066447   0.000889  -0.005523   0.000863
     7  H   -0.009116   0.008131   0.000000   0.000144   0.000008
     8  H    0.008241   0.004330   0.000091  -0.001666   0.000006
     9  H    0.004610   0.024339  -0.000010  -0.000190  -0.001040
    10  H    0.003086  -0.003342  -0.000002   0.000052  -0.000177
    11  H   -0.004569  -0.011534   0.000012  -0.000005   0.000218
    12  H   -0.012118  -0.005785   0.000177   0.001332  -0.000002
    13  H    0.002781  -0.002227  -0.000004   0.000159   0.000003
    14  H    0.005799  -0.068211  -0.000128  -0.000159  -0.027020
    15  O    0.013994  -0.054155   0.000199   0.000134   0.001610
    16  C    0.102750   0.014572  -0.047468  -0.063254   0.002936
    17  H   -0.074074   0.010343  -0.008440   0.003804   0.001293
    18  H   -0.049419   0.008016   0.003677  -0.007360   0.000120
    19  C    5.540405  -0.013291   0.414738   0.423231  -0.017208
    20  N   -0.013291   7.516885  -0.038442  -0.058869  -0.016831
    21  H    0.414738  -0.038442   0.573127  -0.035890   0.002372
    22  H    0.423231  -0.058869  -0.035890   0.575238  -0.000191
    23  H   -0.017208  -0.016831   0.002372  -0.000191   0.577191
 Mulliken charges:
               1
     1  C   -0.163567
     2  C    0.000813
     3  C   -0.318424
     4  C    0.159754
     5  C   -0.321853
     6  C   -0.206587
     7  H    0.179303
     8  H    0.168496
     9  H    0.128935
    10  H    0.139334
    11  H    0.143233
    12  H    0.133946
    13  H    0.143913
    14  H    0.158585
    15  O   -0.389387
    16  C   -0.449644
    17  H    0.148266
    18  H    0.144777
    19  C   -0.119957
    20  N   -0.108577
    21  H    0.149876
    22  H    0.134349
    23  H    0.144417
 Sum of Mulliken charges =  -0.00000
 Mulliken charges with hydrogens summed into heavy atoms:
               1
     1  C    0.184232
     2  C    0.000813
     3  C   -0.015422
     4  C    0.288689
     5  C   -0.039286
     6  C    0.071272
    15  O   -0.389387
    16  C   -0.156602
    19  C    0.164268
    20  N   -0.108577
 Electronic spatial extent (au):  <R**2>=           1243.4293
 Charge=              0.0000 electrons
 Dipole moment (field-independent basis, Debye):
    X=             -3.7161    Y=              2.3685    Z=             -0.6850  Tot=              4.4597
 Quadrupole moment (field-independent basis, Debye-Ang):
   XX=            -69.8482   YY=            -63.7916   ZZ=            -58.1296
   XY=              5.9824   XZ=             -1.7828   YZ=              0.2023
 Traceless Quadrupole moment (field-independent basis, Debye-Ang):
   XX=             -5.9250   YY=              0.1315   ZZ=              5.7936
   XY=              5.9824   XZ=             -1.7828   YZ=              0.2023
 Octapole moment (field-independent basis, Debye-Ang**2):
  XXX=            -11.6042  YYY=             -3.6488  ZZZ=              1.2603  XYY=             -1.3103
  XXY=              7.0913  XXZ=             -2.0299  XZZ=              6.6308  YZZ=             -5.4326
  YYZ=             -0.6055  XYZ=              1.2121
 Hexadecapole moment (field-independent basis, Debye-Ang**3):
 XXXX=           -830.0880 YYYY=           -561.5646 ZZZZ=           -367.8485 XXXY=             46.3378
 XXXZ=             42.6822 YYYX=             29.1663 YYYZ=             22.4110 ZZZX=             48.3678
 ZZZY=             21.0062 XXYY=           -221.5733 XXZZ=           -184.5316 YYZZ=           -155.7098
 XXYZ=              8.6022 YYXZ=             13.8711 ZZXY=              5.5370
 N-N= 5.781093183984D+02 E-N=-2.183639376074D+03  KE= 4.384231970065D+02
 Calling FoFJK, ICntrl=      2127 FMM=F ISym2X=0 I1Cent= 0 IOpClX= 0 NMat=1 NMatS=1 NMatT=0.
 -------------------------------------------------------------------
 Center     Atomic                   Forces (Hartrees/Bohr)
 Number     Number              X              Y              Z
 -------------------------------------------------------------------
      1        6          -0.000329663   -0.000510059   -0.001112345
      2        6          -0.000102968    0.000174370   -0.000000529
      3        6          -0.000056822   -0.000610646   -0.000159423
      4        6           0.000279273   -0.000225140    0.000136002
      5        6           0.000736010   -0.000384612    0.000265809
      6        6           0.000130666   -0.000046482   -0.000036407
      7        1          -0.000015172   -0.000066385   -0.000225618
      8        1          -0.000159231   -0.000102996   -0.000052129
      9        1           0.000034984   -0.000011504    0.000017627
     10        1           0.000100182   -0.000011264    0.000072830
     11        1           0.000092954   -0.000086384   -0.000003244
     12        1          -0.000019859    0.000051313    0.000028339
     13        1           0.000037409   -0.000010039    0.000024503
     14        1          -0.000004197   -0.000094468   -0.000002355
     15        8          -0.000427727    0.001445569    0.001658775
     16        6           0.000021831    0.000232724    0.000064881
     17        1          -0.000006829    0.000025854   -0.000001436
     18        1           0.000011273    0.000039248    0.000022908
     19        6          -0.000177307    0.000183246   -0.000192072
     20        7          -0.000068907    0.000029609   -0.000421848
     21        1          -0.000024368    0.000018937   -0.000013456
     22        1          -0.000026012    0.000016255   -0.000017006
     23        1          -0.000025519   -0.000057147   -0.000053808
 -------------------------------------------------------------------
 Cartesian Forces:  Max     0.001658775 RMS     0.000350975

 GradGradGradGradGradGradGradGradGradGradGradGradGradGradGradGradGradGrad
 Berny optimization.
 FormGI is forming the generalized inverse of G from B-inverse, IUseBI=4.
 Internal  Forces:  Max     0.001284649 RMS     0.000298932
 Search for a local minimum.
 Step number   1 out of a maximum of  138
 All quantities printed in internal units (Hartrees-Bohrs-Radians)
 Mixed Optimization -- En-DIIS/RFO-DIIS
 Second derivative matrix not updated -- first step.
 ITU=  0
     Eigenvalues ---    0.00300   0.00460   0.00570   0.00773   0.01295
     Eigenvalues ---    0.01941   0.02457   0.02612   0.03191   0.03628
     Eigenvalues ---    0.03755   0.03894   0.04546   0.04714   0.04743
     Eigenvalues ---    0.05078   0.05190   0.05489   0.05706   0.05781
     Eigenvalues ---    0.06630   0.06759   0.07502   0.08126   0.08318
     Eigenvalues ---    0.08667   0.08737   0.09095   0.09210   0.09406
     Eigenvalues ---    0.10033   0.10364   0.11365   0.12864   0.15167
     Eigenvalues ---    0.17432   0.18698   0.21818   0.24580   0.24975
     Eigenvalues ---    0.26201   0.26389   0.26677   0.26880   0.27385
     Eigenvalues ---    0.28552   0.31501   0.32965   0.33766   0.33936
     Eigenvalues ---    0.33960   0.33969   0.34041   0.34072   0.34194
     Eigenvalues ---    0.34228   0.34249   0.34297   0.34373   0.34417
     Eigenvalues ---    0.34528   0.40300   0.96210
 RFO step:  Lambda=-8.61317626D-04 EMin= 2.99871506D-03
 Linear search not attempted -- first point.
 Iteration  1 RMS(Cart)=  0.03411707 RMS(Int)=  0.00095310
 Iteration  2 RMS(Cart)=  0.00109230 RMS(Int)=  0.00014736
 Iteration  3 RMS(Cart)=  0.00000087 RMS(Int)=  0.00014736
 Variable       Old X    -DE/DX   Delta X   Delta X   Delta X     New X
                                 (Linear)    (Quad)   (Total)
    R1        2.90069  -0.00037   0.00000  -0.00228  -0.00232   2.89837
    R2        2.92979  -0.00057   0.00000  -0.00361  -0.00361   2.92618
    R3        2.06706  -0.00010   0.00000  -0.00029  -0.00029   2.06677
    R4        2.07438   0.00006   0.00000   0.00017   0.00017   2.07455
    R5        2.30196  -0.00029   0.00000  -0.00030  -0.00030   2.30166
    R6        2.68659  -0.00018   0.00000  -0.00048  -0.00045   2.68614
    R7        2.91446  -0.00072   0.00000  -0.00242  -0.00238   2.91208
    R8        2.06449  -0.00003   0.00000  -0.00008  -0.00008   2.06440
    R9        2.80515  -0.00087   0.00000  -0.00237  -0.00248   2.80267
   R10        2.07382   0.00003   0.00000   0.00009   0.00009   2.07391
   R11        2.93527   0.00004   0.00000   0.00103   0.00101   2.93629
   R12        2.07260  -0.00001   0.00000  -0.00003  -0.00003   2.07258
   R13        2.91712   0.00004   0.00000   0.00074   0.00071   2.91783
   R14        2.92753   0.00028   0.00000   0.00012   0.00022   2.92776
   R15        2.07398  -0.00007   0.00000  -0.00021  -0.00021   2.07377
   R16        2.07726   0.00004   0.00000   0.00013   0.00013   2.07739
   R17        2.06911  -0.00001   0.00000  -0.00004  -0.00004   2.06907
   R18        2.07209  -0.00000   0.00000  -0.00001  -0.00001   2.07208
   R19        2.06947  -0.00001   0.00000  -0.00003  -0.00003   2.06944
   R20        2.06832   0.00001   0.00000   0.00002   0.00002   2.06834
   R21        2.94398   0.00019   0.00000   0.00224   0.00224   2.94622
   R22        2.79709   0.00020   0.00000   0.00081   0.00083   2.79792
   R23        2.07004  -0.00001   0.00000  -0.00002  -0.00002   2.07002
   R24        2.06633   0.00001   0.00000   0.00004   0.00004   2.06637
    A1        2.03896  -0.00041   0.00000  -0.01084  -0.01159   2.02736
    A2        1.81302   0.00017   0.00000  -0.00156  -0.00131   1.81171
    A3        1.91302   0.00008   0.00000   0.00632   0.00652   1.91954
    A4        1.92877  -0.00036   0.00000  -0.00252  -0.00241   1.92636
    A5        1.91597   0.00057   0.00000   0.00759   0.00785   1.92382
    A6        1.84214  -0.00006   0.00000   0.00155   0.00146   1.84361
    A7        2.09373  -0.00037   0.00000  -0.00053  -0.00053   2.09320
    A8        2.09099   0.00028   0.00000  -0.00482  -0.00582   2.08517
    A9        2.09331   0.00008   0.00000   0.00094   0.00096   2.09428
   A10        2.00498  -0.00005   0.00000  -0.00034  -0.00034   2.00464
   A11        1.79301  -0.00012   0.00000  -0.00308  -0.00331   1.78970
   A12        1.93585   0.00018   0.00000   0.00237   0.00248   1.93833
   A13        1.92549  -0.00010   0.00000  -0.00062  -0.00059   1.92491
   A14        1.88606  -0.00003   0.00000   0.00059   0.00055   1.88661
   A15        1.91669   0.00013   0.00000   0.00102   0.00113   1.91781
   A16        1.97020   0.00011   0.00000   0.00020  -0.00007   1.97013
   A17        1.93733  -0.00019   0.00000  -0.00042  -0.00041   1.93692
   A18        1.75278   0.00020   0.00000  -0.00264  -0.00250   1.75028
   A19        1.89430   0.00016   0.00000   0.00156   0.00172   1.89602
   A20        1.95977  -0.00035   0.00000  -0.00109  -0.00109   1.95867
   A21        1.94775   0.00007   0.00000   0.00214   0.00210   1.94985
   A22        2.04959   0.00004   0.00000  -0.00241  -0.00265   2.04694
   A23        1.87665  -0.00014   0.00000  -0.00059  -0.00038   1.87627
   A24        1.90374   0.00011   0.00000   0.00167   0.00161   1.90535
   A25        1.86003  -0.00009   0.00000  -0.00109  -0.00106   1.85897
   A26        1.91327   0.00006   0.00000   0.00207   0.00219   1.91546
   A27        1.84971   0.00001   0.00000   0.00045   0.00042   1.85014
   A28        2.05716  -0.00044   0.00000  -0.00846  -0.00882   2.04834
   A29        1.92240   0.00037   0.00000   0.00221   0.00216   1.92456
   A30        1.86544  -0.00008   0.00000   0.00199   0.00224   1.86768
   A31        1.89747   0.00006   0.00000  -0.00007   0.00012   1.89759
   A32        1.87454   0.00018   0.00000   0.00390   0.00393   1.87847
   A33        1.83308  -0.00006   0.00000   0.00161   0.00155   1.83463
   A34        1.92203   0.00002   0.00000  -0.00018  -0.00015   1.92188
   A35        1.97631   0.00002   0.00000  -0.00011  -0.00004   1.97627
   A36        1.80177  -0.00011   0.00000  -0.00035  -0.00050   1.80127
   A37        1.87145  -0.00002   0.00000   0.00008   0.00005   1.87150
   A38        1.92443   0.00007   0.00000   0.00040   0.00053   1.92495
   A39        1.96818   0.00003   0.00000   0.00016   0.00013   1.96830
   A40        1.86308  -0.00051   0.00000  -0.00290  -0.00293   1.86016
   A41        1.94100   0.00019   0.00000   0.00238   0.00248   1.94348
   A42        1.97611   0.00005   0.00000  -0.00149  -0.00157   1.97454
   A43        1.89008   0.00020   0.00000   0.00207   0.00209   1.89218
   A44        1.92899   0.00018   0.00000  -0.00039  -0.00040   1.92860
   A45        1.86368  -0.00007   0.00000   0.00053   0.00052   1.86420
   A46        1.93319  -0.00019   0.00000  -0.00203  -0.00217   1.93102
   A47        2.08432  -0.00028   0.00000  -0.00464  -0.00473   2.07959
   A48        1.85039   0.00044   0.00000  -0.00220  -0.00216   1.84823
    D1       -2.46867   0.00106   0.00000   0.12756   0.12756  -2.34111
    D2        0.56399   0.00089   0.00000   0.08115   0.08108   0.64506
    D3       -0.34003   0.00048   0.00000   0.11661   0.11663  -0.22340
    D4        2.69263   0.00031   0.00000   0.07019   0.07015   2.76278
    D5        1.62175   0.00052   0.00000   0.12024   0.12037   1.74213
    D6       -1.62877   0.00035   0.00000   0.07382   0.07389  -1.55489
    D7        0.54728  -0.00019   0.00000  -0.04915  -0.04903   0.49825
    D8       -1.64298  -0.00025   0.00000  -0.04407  -0.04390  -1.68688
    D9        2.65795  -0.00032   0.00000  -0.04811  -0.04799   2.60995
   D10       -1.51976   0.00015   0.00000  -0.03756  -0.03749  -1.55725
   D11        2.57316   0.00009   0.00000  -0.03248  -0.03236   2.54080
   D12        0.59090   0.00003   0.00000  -0.03651  -0.03645   0.55445
   D13        2.73856   0.00010   0.00000  -0.04247  -0.04252   2.69604
   D14        0.54830   0.00004   0.00000  -0.03739  -0.03739   0.51091
   D15       -1.43396  -0.00003   0.00000  -0.04143  -0.04148  -1.47544
   D16       -1.59165  -0.00109   0.00000  -0.05005  -0.04981  -1.64146
   D17        0.56470  -0.00087   0.00000  -0.05888  -0.05873   0.50596
   D18        1.44103  -0.00128   0.00000  -0.09654  -0.09642   1.34461
   D19       -2.68581  -0.00107   0.00000  -0.10538  -0.10534  -2.79115
   D20        0.79835   0.00014   0.00000   0.01099   0.01099   0.80935
   D21       -1.33297  -0.00000   0.00000   0.00912   0.00911  -1.32386
   D22        2.88839  -0.00011   0.00000   0.00825   0.00820   2.89659
   D23       -1.29286   0.00037   0.00000   0.01398   0.01408  -1.27878
   D24        2.85901   0.00023   0.00000   0.01211   0.01219   2.87120
   D25        0.79718   0.00013   0.00000   0.01124   0.01128   0.80846
   D26        2.94328   0.00020   0.00000   0.01341   0.01346   2.95674
   D27        0.81196   0.00006   0.00000   0.01154   0.01158   0.82354
   D28       -1.24987  -0.00004   0.00000   0.01067   0.01067  -1.23920
   D29        1.61794  -0.00036   0.00000  -0.02597  -0.02614   1.59179
   D30       -0.66763  -0.00019   0.00000  -0.01693  -0.01696  -0.68460
   D31       -0.52755  -0.00017   0.00000  -0.02344  -0.02351  -0.55106
   D32       -2.81313  -0.00000   0.00000  -0.01440  -0.01433  -2.82745
   D33       -2.60463  -0.00016   0.00000  -0.02441  -0.02453  -2.62917
   D34        1.39298   0.00001   0.00000  -0.01538  -0.01535   1.37763
   D35        1.30361   0.00030   0.00000   0.03319   0.03320   1.33680
   D36       -2.88414   0.00009   0.00000   0.02971   0.02976  -2.85438
   D37       -0.88574   0.00009   0.00000   0.03077   0.03086  -0.85488
   D38       -2.82426   0.00024   0.00000   0.03393   0.03387  -2.79039
   D39       -0.72882   0.00004   0.00000   0.03044   0.03044  -0.69839
   D40        1.26957   0.00003   0.00000   0.03151   0.03154   1.30111
   D41       -0.66272   0.00021   0.00000   0.03705   0.03705  -0.62567
   D42        1.43272   0.00000   0.00000   0.03356   0.03361   1.46633
   D43       -2.85207  -0.00000   0.00000   0.03462   0.03471  -2.81736
   D44        1.43418  -0.00006   0.00000  -0.00170  -0.00165   1.43254
   D45       -2.75397  -0.00006   0.00000  -0.00180  -0.00172  -2.75569
   D46       -0.62031  -0.00009   0.00000  -0.00189  -0.00192  -0.62223
   D47       -2.75144   0.00002   0.00000  -0.00348  -0.00366  -2.75510
   D48       -0.65641   0.00002   0.00000  -0.00358  -0.00373  -0.66014
   D49        1.47725  -0.00001   0.00000  -0.00368  -0.00393   1.47332
   D50       -0.61998   0.00002   0.00000  -0.00067  -0.00068  -0.62066
   D51        1.47505   0.00002   0.00000  -0.00077  -0.00075   1.47429
   D52       -2.67448  -0.00001   0.00000  -0.00086  -0.00095  -2.67543
   D53       -1.19941  -0.00046   0.00000  -0.01576  -0.01545  -1.21486
   D54        1.00302  -0.00025   0.00000  -0.01957  -0.01940   0.98362
   D55        2.97781  -0.00020   0.00000  -0.01577  -0.01555   2.96226
   D56        2.97962  -0.00023   0.00000  -0.01257  -0.01241   2.96721
   D57       -1.10113  -0.00002   0.00000  -0.01638  -0.01637  -1.11749
   D58        0.87366   0.00004   0.00000  -0.01258  -0.01251   0.86115
   D59        0.98521  -0.00022   0.00000  -0.01354  -0.01341   0.97180
   D60       -3.09553  -0.00001   0.00000  -0.01735  -0.01737  -3.11290
   D61       -1.12075   0.00004   0.00000  -0.01355  -0.01351  -1.13426
   D62        0.23666  -0.00005   0.00000  -0.00794  -0.00798   0.22868
   D63        2.29492  -0.00002   0.00000  -0.00589  -0.00586   2.28906
   D64       -1.88980   0.00005   0.00000  -0.00453  -0.00450  -1.89430
   D65       -1.81616  -0.00004   0.00000  -0.00773  -0.00777  -1.82393
   D66        0.24211  -0.00001   0.00000  -0.00567  -0.00566   0.23645
   D67        2.34057   0.00006   0.00000  -0.00431  -0.00429   2.33628
   D68        2.37576  -0.00008   0.00000  -0.00821  -0.00829   2.36747
   D69       -1.84916  -0.00005   0.00000  -0.00616  -0.00617  -1.85533
   D70        0.24930   0.00002   0.00000  -0.00480  -0.00481   0.24450
   D71       -1.93028   0.00018   0.00000   0.02330   0.02353  -1.90675
   D72        0.26586   0.00010   0.00000   0.01499   0.01506   0.28092
   D73        2.26148   0.00014   0.00000   0.02098   0.02110   2.28259
   D74       -1.82556   0.00006   0.00000   0.01267   0.01264  -1.81293
   D75        0.22566   0.00001   0.00000   0.01935   0.01947   0.24513
   D76        2.42180  -0.00007   0.00000   0.01104   0.01100   2.43281
         Item               Value     Threshold  Converged?
 Maximum Force            0.001285     0.000450     NO 
 RMS     Force            0.000299     0.000300     YES
 Maximum Displacement     0.201078     0.001800     NO 
 RMS     Displacement     0.034202     0.001200     NO 
 Predicted change in Energy=-4.778870D-04
 GradGradGradGradGradGradGradGradGradGradGradGradGradGradGradGradGradGrad

                          Input orientation:                          
 ---------------------------------------------------------------------
 Center     Atomic      Atomic             Coordinates (Angstroms)
 Number     Number       Type             X           Y           Z
 ---------------------------------------------------------------------
      1          6           0        1.236668    0.821243   -1.112360
      2          6           0        1.338742   -0.467124   -0.286474
      3          6           0       -0.338394   -0.766942    1.387923
      4          6           0       -1.303249    0.386001    1.049573
      5          6           0       -0.565824    1.685131    0.622010
      6          6           0        0.019691    1.730265   -0.811683
      7          1           0        2.169238    1.347863   -0.890691
      8          1           0        1.278093    0.584462   -2.183524
      9          1           0       -1.953690    0.616622    1.901995
     10          1           0       -1.285162    2.510977    0.691267
     11          1           0        0.224063    1.909080    1.353036
     12          1           0       -0.786000    1.534269   -1.526711
     13          1           0        0.333266    2.762088   -1.009983
     14          1           0        0.499508   -0.490482    2.032054
     15          8           0        2.403219   -0.787008    0.211576
     16          6           0       -2.092477   -0.248166   -0.116206
     17          1           0       -2.886009   -0.894331    0.273693
     18          1           0       -2.567653    0.491191   -0.768536
     19          6           0       -1.015077   -1.100068   -0.853892
     20          7           0        0.154511   -1.177354    0.050681
     21          1           0       -1.372982   -2.117674   -1.044423
     22          1           0       -0.724168   -0.680882   -1.821022
     23          1           0       -0.871530   -1.601212    1.861410
 ---------------------------------------------------------------------
                    Distance matrix (angstroms):
                    1          2          3          4          5
     1  C    0.000000
     2  C    1.533752   0.000000
     3  C    3.354783   2.388783   0.000000
     4  C    3.363713   3.081065   1.541007   0.000000
     5  C    2.646378   3.014119   2.578954   1.553816   0.000000
     6  C    1.548470   2.616153   3.347019   2.649809   1.549303
     7  H    1.093687   2.085420   3.994083   4.092428   3.143657
     8  H    1.097804   2.169863   4.146632   4.141935   3.533061
     9  H    4.393926   4.099269   2.188081   1.096760   2.169388
    10  H    3.530991   4.087779   3.482306   2.155049   1.097391
    11  H    2.878703   3.094648   2.734715   2.178196   1.099305
    12  H    2.184325   3.171480   3.740456   2.867631   2.165235
    13  H    2.143244   3.458649   4.319158   3.544818   2.152115
    14  H    3.485881   2.465853   1.092435   2.232359   2.802936
    15  O    2.387492   1.217987   2.983394   3.976946   3.885247
    16  C    3.635816   3.442411   2.368192   1.544049   2.571628
    17  H    4.675554   4.283085   2.783537   2.178617   3.486862
    18  H    3.834059   4.051009   3.347059   2.217048   2.714117
    19  C    2.971295   2.502607   2.365293   2.432001   3.183936
    20  N    2.553060   1.421444   1.483108   2.359434   3.006513
    21  H    3.930918   3.263778   2.968359   3.264670   4.229636
    22  H    2.569720   2.579947   3.233196   3.116711   3.404628
    23  H    4.376768   3.284032   1.097466   2.189630   3.525567
                    6          7          8          9         10
     6  C    0.000000
     7  H    2.184725   0.000000
     8  H    2.185953   1.745948   0.000000
     9  H    3.535319   5.033124   5.209310   0.000000
    10  H    2.137993   3.973451   4.306526   2.345501   0.000000
    11  H    2.181684   3.022082   3.920822   2.591218   1.754417
    12  H    1.094906   3.028647   2.365167   3.736522   2.474379
    13  H    1.096499   2.320572   2.648009   4.279346   2.361486
    14  H    3.639887   3.835355   4.419592   2.694583   3.740524
    15  O    3.614544   2.414004   2.980493   4.879585   4.971013
    16  C    2.976429   4.616205   4.040769   2.200057   2.986075
    17  H    4.063206   5.651438   5.056134   2.409059   3.785922
    18  H    2.869062   4.815282   4.098860   2.743067   2.802739
    19  C    3.013854   4.016663   3.140730   3.379783   3.937019
    20  N    3.035803   3.364822   3.059101   3.330199   4.010835
    21  H    4.098822   4.957913   3.953136   4.061400   4.944162
    22  H    2.717669   3.654192   2.396154   4.129902   4.100521
    23  H    4.363306   5.051472   5.075385   2.468098   4.295397
                   11         12         13         14         15
    11  H    0.000000
    12  H    3.074679   0.000000
    13  H    2.514638   1.739915   0.000000
    14  H    2.508951   4.291498   4.456549   0.000000
    15  O    3.649732   4.310579   4.286373   2.650695   0.000000
    16  C    3.489804   2.621732   3.967958   3.375222   4.539722
    17  H    4.323961   3.680977   5.037951   3.836229   5.290682
    18  H    3.782215   2.199347   3.691964   4.267840   5.225321
    19  C    3.932044   2.728533   4.093732   3.315757   3.594159
    20  N    3.350677   3.275000   4.083645   2.125242   2.288000
    21  H    4.951070   3.730125   5.169578   3.952047   4.196177
    22  H    4.204959   2.235472   3.691882   4.047200   3.731390
    23  H    3.712266   4.617134   5.360486   1.772734   3.756177
                   16         17         18         19         20
    16  C    0.000000
    17  H    1.095100   0.000000
    18  H    1.094521   1.762743   0.000000
    19  C    1.559073   2.194120   2.224834   0.000000
    20  N    2.437251   3.061797   3.296261   1.480595   0.000000
    21  H    2.207786   2.350159   2.882625   1.095408   2.101592
    22  H    2.228432   3.017772   2.424854   1.093474   2.126460
    23  H    2.689314   2.660574   3.764519   2.764890   2.123948
                   21         22         23
    21  H    0.000000
    22  H    1.757395   0.000000
    23  H    2.993668   3.798556   0.000000
 Symmetry turned off by external request.
 Stoichiometry    C8H13NO
 Framework group  C1[X(C8H13NO)]
 Deg. of freedom    63
 Full point group                 C1      NOp   1
 Rotational constants (GHZ):           1.9458619           1.4315213           1.1720945
 Standard basis: 6-31+G(d,p) (6D, 7F)
   255 basis functions,   411 primitive gaussians,   255 cartesian basis functions
    38 alpha electrons       38 beta electrons
       nuclear repulsion energy       579.4464145694 Hartrees.
 NAtoms=   23 NActive=   23 NUniq=   23 SFac= 1.00D+00 NAtFMM=   60 NAOKFM=F Big=F
 Integral buffers will be    131072 words long.
 Raffenetti 2 integral format.
 Two-electron integral symmetry is turned off.
 One-electron integrals computed using PRISM.
 NBasis=   255 RedAO= T EigKep=  1.31D-05  NBF=   255
 NBsUse=   255 1.00D-06 EigRej= -1.00D+00 NBFU=   255
 Initial guess from the checkpoint file:  "/scratch/Grace/g03/Gau-20825.chk"
 B after Tr=    -0.000037    0.017465    0.018702
         Rot=    0.999979    0.002530    0.004402   -0.004021 Ang=   0.74 deg.
 ExpMin= 4.38D-02 ExpMax= 5.48D+03 ExpMxC= 8.25D+02 IAcc=2 IRadAn=         4 AccDes= 0.00D+00
 Harris functional with IExCor=  402 and IRadAn=       4 diagonalized for initial guess.
 HarFok:  IExCor=  402 AccDes= 0.00D+00 IRadAn=         4 IDoV= 1 UseB2=F ITyADJ=14
 ICtDFT=  3500011 ScaDFX=  1.000000  1.000000  1.000000  1.000000
 FoFCou: FMM=F IPFlag=           0 FMFlag=      100000 FMFlg1=           0
         NFxFlg=           0 DoJE=T BraDBF=F KetDBF=T FulRan=T
         wScrn=  0.000000 ICntrl=       500 IOpCl=  0 I1Cent=   200000004 NGrid=           0
         NMat0=    1 NMatS0=      1 NMatT0=    0 NMatD0=    1 NMtDS0=    0 NMtDT0=    0
 Symmetry not used in FoFCou.
 Requested convergence on RMS density matrix=1.00D-08 within 128 cycles.
 Requested convergence on MAX density matrix=1.00D-06.
 Requested convergence on             energy=1.00D-06.
 No special actions if energy rises.
 SCF Done:  E(RB3LYP) =  -442.670287986     A.U. after   11 cycles
            NFock= 11  Conv=0.90D-08     -V/T= 2.0097
 Calling FoFJK, ICntrl=      2127 FMM=F ISym2X=0 I1Cent= 0 IOpClX= 0 NMat=1 NMatS=1 NMatT=0.
 -------------------------------------------------------------------
 Center     Atomic                   Forces (Hartrees/Bohr)
 Number     Number              X              Y              Z
 -------------------------------------------------------------------
      1        6           0.002867238   -0.001719500   -0.003701025
      2        6          -0.003274989    0.003013192    0.004617794
      3        6           0.000789393   -0.000910628    0.001367872
      4        6          -0.000421736   -0.000785825   -0.000057565
      5        6           0.000044992    0.000449479    0.000118636
      6        6          -0.000536074    0.000010863    0.000415353
      7        1          -0.000069126   -0.000331953   -0.000319789
      8        1          -0.000608318    0.000440379   -0.000110856
      9        1          -0.000064914   -0.000027109   -0.000141768
     10        1           0.000057048   -0.000008552    0.000182593
     11        1          -0.000002712   -0.000052943   -0.000217083
     12        1           0.000149037    0.000292111    0.000088171
     13        1           0.000003420   -0.000130753    0.000215560
     14        1          -0.000022122   -0.000326434   -0.000298415
     15        8           0.000960807   -0.000841296    0.000839521
     16        6          -0.000510727    0.000027412    0.000094095
     17        1          -0.000000551    0.000012033    0.000023396
     18        1          -0.000084347   -0.000204901    0.000054695
     19        6          -0.000509186    0.000315109   -0.000024408
     20        7           0.001651949    0.000943972   -0.003501792
     21        1          -0.000111692    0.000119246    0.000247061
     22        1          -0.000172350   -0.000373763    0.000272374
     23        1          -0.000135039    0.000089863   -0.000164420
 -------------------------------------------------------------------
 Cartesian Forces:  Max     0.004617794 RMS     0.001150740

 GradGradGradGradGradGradGradGradGradGradGradGradGradGradGradGradGradGrad
 Berny optimization.
 Using GEDIIS/GDIIS optimizer.
 FormGI is forming the generalized inverse of G from B-inverse, IUseBI=4.
 Internal  Forces:  Max     0.001899398 RMS     0.000462346
 Search for a local minimum.
 Step number   2 out of a maximum of  138
 All quantities printed in internal units (Hartrees-Bohrs-Radians)
 Mixed Optimization -- En-DIIS/RFO-DIIS
 Swapping is turned off.
 Update second derivatives using D2CorX and points    1    2
 DE= -6.77D-04 DEPred=-4.78D-04 R= 1.42D+00
 TightC=F SS=  1.41D+00  RLast= 3.48D-01 DXNew= 5.0454D-01 1.0451D+00
 Trust test= 1.42D+00 RLast= 3.48D-01 DXMaxT set to 5.05D-01
 ITU=  1  0
     Eigenvalues ---    0.00097   0.00434   0.00474   0.01059   0.01406
     Eigenvalues ---    0.02075   0.02402   0.02662   0.03103   0.03677
     Eigenvalues ---    0.03774   0.03903   0.04691   0.04720   0.04864
     Eigenvalues ---    0.05088   0.05226   0.05498   0.05710   0.05820
     Eigenvalues ---    0.06656   0.06756   0.07475   0.08150   0.08355
     Eigenvalues ---    0.08672   0.08759   0.09064   0.09131   0.09766
     Eigenvalues ---    0.10032   0.10654   0.11316   0.12928   0.15557
     Eigenvalues ---    0.17758   0.18847   0.22148   0.24391   0.25460
     Eigenvalues ---    0.26146   0.26653   0.26842   0.26928   0.28287
     Eigenvalues ---    0.29349   0.31901   0.32956   0.33782   0.33937
     Eigenvalues ---    0.33959   0.33973   0.34043   0.34081   0.34197
     Eigenvalues ---    0.34228   0.34261   0.34303   0.34377   0.34489
     Eigenvalues ---    0.34637   0.40646   0.97024
 En-DIIS/RFO-DIIS/Sim-DIIS IScMMF=       -3 using points:     2    1
 RFO step:  Lambda=-1.55137997D-03.
 DidBck=F Rises=F RFO-DIIS coefs:    3.00000   -2.00000
 Iteration  1 RMS(Cart)=  0.08992467 RMS(Int)=  0.02069970
 Iteration  2 RMS(Cart)=  0.02709214 RMS(Int)=  0.00298693
 Iteration  3 RMS(Cart)=  0.00063950 RMS(Int)=  0.00294990
 Iteration  4 RMS(Cart)=  0.00000119 RMS(Int)=  0.00294990
 Iteration  5 RMS(Cart)=  0.00000001 RMS(Int)=  0.00294990
 Variable       Old X    -DE/DX   Delta X   Delta X   Delta X     New X
                                 (Linear)    (Quad)   (Total)
    R1        2.89837   0.00036  -0.00465  -0.00499  -0.01151   2.88686
    R2        2.92618   0.00128  -0.00722   0.00458  -0.00288   2.92330
    R3        2.06677  -0.00028  -0.00058  -0.00148  -0.00206   2.06471
    R4        2.07455  -0.00001   0.00035  -0.00000   0.00035   2.07489
    R5        2.30166   0.00140  -0.00060   0.00240   0.00180   2.30347
    R6        2.68614  -0.00127  -0.00090  -0.00794  -0.00870   2.67744
    R7        2.91208  -0.00008  -0.00476   0.00162  -0.00259   2.90950
    R8        2.06440  -0.00028  -0.00017  -0.00138  -0.00155   2.06286
    R9        2.80267  -0.00013  -0.00497  -0.00312  -0.01017   2.79250
   R10        2.07391  -0.00007   0.00018  -0.00034  -0.00016   2.07375
   R11        2.93629   0.00080   0.00203   0.01132   0.01372   2.95001
   R12        2.07258  -0.00008  -0.00005  -0.00039  -0.00045   2.07213
   R13        2.91783   0.00011   0.00142   0.00002   0.00139   2.91922
   R14        2.92776   0.00072   0.00045   0.00813   0.01057   2.93833
   R15        2.07377  -0.00003  -0.00043  -0.00022  -0.00064   2.07312
   R16        2.07739  -0.00016   0.00025  -0.00076  -0.00051   2.07688
   R17        2.06907  -0.00022  -0.00008  -0.00110  -0.00118   2.06790
   R18        2.07208  -0.00016  -0.00002  -0.00081  -0.00083   2.07125
   R19        2.06944   0.00000  -0.00007  -0.00000  -0.00007   2.06937
   R20        2.06834  -0.00013   0.00005  -0.00066  -0.00061   2.06774
   R21        2.94622  -0.00012   0.00447   0.00134   0.00647   2.95270
   R22        2.79792   0.00034   0.00167   0.00328   0.00538   2.80330
   R23        2.07002  -0.00012  -0.00004  -0.00059  -0.00063   2.06939
   R24        2.06637  -0.00043   0.00008  -0.00211  -0.00204   2.06433
    A1        2.02736  -0.00190  -0.02318  -0.04259  -0.08025   1.94711
    A2        1.81171   0.00037  -0.00262   0.00059   0.00319   1.81490
    A3        1.91954   0.00122   0.01305   0.02476   0.04134   1.96088
    A4        1.92636   0.00046  -0.00481   0.00580   0.00412   1.93049
    A5        1.92382   0.00020   0.01570   0.00843   0.02813   1.95195
    A6        1.84361  -0.00020   0.00293   0.00683   0.00760   1.85121
    A7        2.09320   0.00025  -0.00106   0.01419   0.02007   2.11327
    A8        2.08517   0.00119  -0.01163  -0.00390  -0.03213   2.05304
    A9        2.09428  -0.00125   0.00193   0.00554   0.01457   2.10885
   A10        2.00464   0.00041  -0.00068   0.00493   0.00360   2.00824
   A11        1.78970  -0.00037  -0.00662  -0.01500  -0.02572   1.76398
   A12        1.93833  -0.00010   0.00496   0.00400   0.01148   1.94981
   A13        1.92491  -0.00019  -0.00117  -0.00351  -0.00346   1.92145
   A14        1.88661  -0.00002   0.00110   0.00404   0.00445   1.89106
   A15        1.91781   0.00026   0.00225   0.00487   0.00859   1.92641
   A16        1.97013  -0.00051  -0.00013   0.00266  -0.00327   1.96687
   A17        1.93692   0.00004  -0.00082  -0.00131  -0.00155   1.93537
   A18        1.75028   0.00028  -0.00500  -0.00495  -0.00788   1.74240
   A19        1.89602   0.00024   0.00343   0.00223   0.00799   1.90401
   A20        1.95867   0.00030  -0.00219   0.00250   0.00174   1.96041
   A21        1.94985  -0.00036   0.00420  -0.00165   0.00164   1.95149
   A22        2.04694   0.00039  -0.00530   0.00813   0.00255   2.04948
   A23        1.87627  -0.00019  -0.00076  -0.00223   0.00042   1.87669
   A24        1.90535  -0.00001   0.00322  -0.00099  -0.00091   1.90444
   A25        1.85897   0.00011  -0.00212  -0.00123  -0.00413   1.85484
   A26        1.91546  -0.00035   0.00438  -0.00262   0.00277   1.91823
   A27        1.85014   0.00004   0.00084  -0.00200  -0.00121   1.84892
   A28        2.04834   0.00029  -0.01764  -0.00393  -0.02805   2.02029
   A29        1.92456   0.00008   0.00433   0.00191   0.00471   1.92927
   A30        1.86768  -0.00015   0.00448   0.00207   0.01189   1.87957
   A31        1.89759  -0.00015   0.00025  -0.00312   0.00129   1.89888
   A32        1.87847  -0.00011   0.00786   0.00370   0.01138   1.88985
   A33        1.83463   0.00002   0.00311  -0.00006   0.00201   1.83664
   A34        1.92188  -0.00006  -0.00030   0.00013   0.00017   1.92205
   A35        1.97627   0.00029  -0.00008   0.00407   0.00527   1.98153
   A36        1.80127  -0.00030  -0.00101  -0.00752  -0.01117   1.79009
   A37        1.87150  -0.00010   0.00010  -0.00002  -0.00040   1.87110
   A38        1.92495   0.00033   0.00105   0.00213   0.00549   1.93044
   A39        1.96830  -0.00015   0.00025   0.00115   0.00070   1.96901
   A40        1.86016   0.00002  -0.00585  -0.00318  -0.00973   1.85042
   A41        1.94348  -0.00000   0.00495  -0.00148   0.00552   1.94900
   A42        1.97454  -0.00007  -0.00315   0.00142  -0.00336   1.97118
   A43        1.89218   0.00004   0.00418  -0.00043   0.00430   1.89648
   A44        1.92860   0.00001  -0.00079   0.00312   0.00224   1.93083
   A45        1.86420   0.00001   0.00105   0.00055   0.00148   1.86568
   A46        1.93102  -0.00038  -0.00434  -0.01480  -0.02009   1.91093
   A47        2.07959   0.00087  -0.00946   0.01268  -0.00043   2.07916
   A48        1.84823   0.00003  -0.00432  -0.00523  -0.00887   1.83935
    D1       -2.34111  -0.00019   0.25513   0.05263   0.30568  -2.03543
    D2        0.64506   0.00111   0.16216   0.16904   0.32641   0.97147
    D3       -0.22340  -0.00045   0.23327   0.03538   0.26907   0.04568
    D4        2.76278   0.00084   0.14030   0.15179   0.28980   3.05258
    D5        1.74213   0.00002   0.24074   0.05382   0.29765   2.03978
    D6       -1.55489   0.00131   0.14777   0.17023   0.31838  -1.23651
    D7        0.49825  -0.00031  -0.09806  -0.10616  -0.20002   0.29824
    D8       -1.68688  -0.00039  -0.08780  -0.10032  -0.18345  -1.87033
    D9        2.60995  -0.00037  -0.09599  -0.10232  -0.19473   2.41522
   D10       -1.55725   0.00015  -0.07497  -0.08240  -0.15563  -1.71288
   D11        2.54080   0.00007  -0.06472  -0.07656  -0.13907   2.40173
   D12        0.55445   0.00008  -0.07291  -0.07856  -0.15035   0.40410
   D13        2.69604   0.00000  -0.08503  -0.09921  -0.18496   2.51108
   D14        0.51091  -0.00008  -0.07478  -0.09338  -0.16840   0.34251
   D15       -1.47544  -0.00007  -0.08297  -0.09537  -0.17968  -1.65512
   D16       -1.64146  -0.00190  -0.09962  -0.12594  -0.22134  -1.86281
   D17        0.50596  -0.00151  -0.11746  -0.13647  -0.25183   0.25414
   D18        1.34461  -0.00047  -0.19284  -0.00867  -0.20016   1.14445
   D19       -2.79115  -0.00007  -0.21068  -0.01920  -0.23065  -3.02179
   D20        0.80935  -0.00017   0.02199   0.02311   0.04413   0.85348
   D21       -1.32386  -0.00014   0.01822   0.01926   0.03723  -1.28663
   D22        2.89659   0.00011   0.01640   0.02433   0.04014   2.93673
   D23       -1.27878   0.00010   0.02815   0.03472   0.06321  -1.21557
   D24        2.87120   0.00013   0.02438   0.03087   0.05631   2.92751
   D25        0.80846   0.00038   0.02257   0.03594   0.05922   0.86768
   D26        2.95674   0.00004   0.02692   0.03548   0.06234   3.01908
   D27        0.82354   0.00007   0.02315   0.03163   0.05544   0.87897
   D28       -1.23920   0.00032   0.02134   0.03670   0.05835  -1.18085
   D29        1.59179   0.00054  -0.05229  -0.03441  -0.09115   1.50064
   D30       -0.68460  -0.00033  -0.03393  -0.03642  -0.07087  -0.75547
   D31       -0.55106   0.00036  -0.04702  -0.02971  -0.07907  -0.63014
   D32       -2.82745  -0.00050  -0.02866  -0.03173  -0.05879  -2.88625
   D33       -2.62917   0.00034  -0.04906  -0.03556  -0.08781  -2.71697
   D34        1.37763  -0.00052  -0.03070  -0.03758  -0.06752   1.31010
   D35        1.33680  -0.00008   0.06639   0.03284   0.09936   1.43617
   D36       -2.85438   0.00017   0.05951   0.03487   0.09597  -2.75841
   D37       -0.85488   0.00010   0.06172   0.03085   0.09431  -0.76057
   D38       -2.79039  -0.00021   0.06775   0.03460   0.10096  -2.68942
   D39       -0.69839   0.00004   0.06087   0.03663   0.09757  -0.60081
   D40        1.30111  -0.00003   0.06308   0.03261   0.09591   1.39703
   D41       -0.62567  -0.00030   0.07409   0.03581   0.11010  -0.51557
   D42        1.46633  -0.00005   0.06722   0.03784   0.10671   1.57304
   D43       -2.81736  -0.00012   0.06943   0.03382   0.10505  -2.71230
   D44        1.43254  -0.00001  -0.00329  -0.02236  -0.02437   1.40817
   D45       -2.75569   0.00002  -0.00343  -0.01956  -0.02122  -2.77691
   D46       -0.62223  -0.00020  -0.00383  -0.02086  -0.02482  -0.64705
   D47       -2.75510  -0.00031  -0.00732  -0.02099  -0.03194  -2.78704
   D48       -0.66014  -0.00029  -0.00747  -0.01819  -0.02878  -0.68893
   D49        1.47332  -0.00051  -0.00787  -0.01949  -0.03239   1.44093
   D50       -0.62066  -0.00005  -0.00136  -0.01747  -0.01898  -0.63964
   D51        1.47429  -0.00003  -0.00150  -0.01466  -0.01583   1.45847
   D52       -2.67543  -0.00025  -0.00191  -0.01596  -0.01943  -2.69486
   D53       -1.21486  -0.00010  -0.03089  -0.00204  -0.02596  -1.24082
   D54        0.98362   0.00010  -0.03881  -0.00529  -0.04019   0.94343
   D55        2.96226  -0.00001  -0.03110  -0.00502  -0.03136   2.93090
   D56        2.96721  -0.00018  -0.02482  -0.00345  -0.02495   2.94226
   D57       -1.11749   0.00001  -0.03273  -0.00670  -0.03918  -1.15667
   D58        0.86115  -0.00010  -0.02503  -0.00643  -0.03035   0.83080
   D59        0.97180  -0.00011  -0.02682   0.00081  -0.02270   0.94911
   D60       -3.11290   0.00008  -0.03473  -0.00243  -0.03692   3.13336
   D61       -1.13426  -0.00003  -0.02703  -0.00216  -0.02810  -1.16235
   D62        0.22868  -0.00014  -0.01596  -0.00194  -0.01893   0.20975
   D63        2.28906  -0.00008  -0.01173  -0.00517  -0.01662   2.27244
   D64       -1.89430  -0.00012  -0.00900  -0.00452  -0.01309  -1.90738
   D65       -1.82393  -0.00006  -0.01555   0.00099  -0.01557  -1.83950
   D66        0.23645   0.00000  -0.01132  -0.00224  -0.01327   0.22318
   D67        2.33628  -0.00004  -0.00859  -0.00159  -0.00973   2.32655
   D68        2.36747  -0.00006  -0.01658  -0.00124  -0.01937   2.34810
   D69       -1.85533  -0.00000  -0.01235  -0.00447  -0.01707  -1.87240
   D70        0.24450  -0.00004  -0.00962  -0.00382  -0.01353   0.23097
   D71       -1.90675   0.00019   0.04706   0.04038   0.09211  -1.81464
   D72        0.28092   0.00034   0.03013   0.02496   0.05694   0.33786
   D73        2.28259   0.00017   0.04221   0.04412   0.08872   2.37131
   D74       -1.81293   0.00032   0.02527   0.02870   0.05355  -1.75937
   D75        0.24513   0.00012   0.03894   0.04196   0.08312   0.32826
   D76        2.43281   0.00027   0.02201   0.02654   0.04796   2.48076
         Item               Value     Threshold  Converged?
 Maximum Force            0.001899     0.000450     NO 
 RMS     Force            0.000462     0.000300     NO 
 Maximum Displacement     0.614464     0.001800     NO 
 RMS     Displacement     0.109570     0.001200     NO 
 Predicted change in Energy=-1.287577D-03
 GradGradGradGradGradGradGradGradGradGradGradGradGradGradGradGradGradGrad

                          Input orientation:                          
 ---------------------------------------------------------------------
 Center     Atomic      Atomic             Coordinates (Angstroms)
 Number     Number       Type             X           Y           Z
 ---------------------------------------------------------------------
      1          6           0        1.172886    0.787261   -1.197995
      2          6           0        1.317267   -0.344929   -0.182590
      3          6           0       -0.375373   -0.817244    1.398540
      4          6           0       -1.291380    0.369445    1.047555
      5          6           0       -0.492281    1.647870    0.642547
      6          6           0        0.013767    1.741279   -0.824727
      7          1           0        2.131456    1.309329   -1.149462
[...]
 6515832,-0.03825021,0.01610647,0.00763315,0.01586614,0.00074178,0.0020
 4830,0.00050099,-0.00017164,-0.00014039,0.00001346,0.00001924,0.000057
 48,-0.00000921,-0.00000762,-0.00003456,0.00001625,-0.00020977,0.000255
 55,-0.00059965,-0.00006176,0.00027916,-0.00024088,-0.00052332,-0.00047
 190,-0.00032895,0.00010217,0.00002263,-0.00012974,-0.00000423,-0.00000
 108,0.00003975,0.05183478,0.06563848,0.00025903,-0.00020894,-0.0001897
 5,-0.00558765,-0.00122027,-0.00363642,-0.12191683,-0.03615447,-0.15216
 764,-0.00132305,0.00001775,-0.00074241,-0.00016771,-0.00060327,-0.0000
 6294,0.00006737,0.00001600,-0.00007407,0.00005657,0.00007033,-0.000037
 20,-0.00001618,-0.00000479,0.00008237,-0.00034257,0.00039924,-0.000069
 93,0.00021394,-0.00004499,0.00015549,0.00020361,0.00054363,0.00007427,
 0.00006465,-0.00007329,0.00009651,0.00002457,0.00000972,-0.00000443,0.
 13742959,0.04066415,0.17233301,-0.00858082,0.00925005,-0.02235814,-0.4
 7441111,0.06020127,-0.28257731,-0.00025663,0.00371885,-0.01309954,-0.0
 0193801,-0.00041729,0.00199563,-0.00058298,-0.00097572,0.00004877,0.00
 242986,-0.00027774,-0.00019137,0.00161360,0.00164037,0.00032264,0.0000
 0283,0.00241229,-0.00019172,-0.00095017,0.00109016,-0.00001322,0.00026
 045,0.00029531,-0.00004086,0.00005795,0.00060123,0.00044255,0.00036743
 ,-0.00045664,0.00026167,-0.00042765,0.00047076,-0.00006131,-0.00134905
 ,-0.00030727,0.00115772,0.56606556,0.02102956,0.00503283,0.03302817,0.
 05537217,-0.09391925,0.05423956,-0.00075203,0.00128614,-0.00263515,-0.
 00140047,-0.00030015,0.00050443,-0.00057224,-0.00135475,-0.00051815,-0
 .00007448,0.00171645,0.00073829,0.00231339,0.00286855,-0.00175377,0.00
 266293,-0.00567690,0.00455360,-0.00029792,0.00058749,-0.00004064,0.000
 34012,0.00010125,-0.00005622,0.00051554,0.00016695,0.00033866,0.000665
 49,-0.00039780,-0.00009083,-0.00004957,-0.00002902,-0.00017243,-0.0004
 9531,-0.00057421,0.00001886,-0.04358653,0.07928025,-0.03793137,0.02037
 355,-0.01297440,-0.27243105,0.06932579,-0.28695826,0.00090561,0.002331
 27,-0.01106135,-0.00123729,0.00190809,0.00287956,-0.00066706,-0.001273
 81,-0.00199416,0.00295026,0.00210789,-0.00690975,-0.00065308,-0.001499
 63,0.00079541,-0.00085413,0.00132145,-0.00141479,-0.00077367,0.0004857
 7,0.00000865,0.00024728,0.00002894,0.00072400,0.00050633,0.00044339,0.
 00116115,-0.00125000,0.00123863,0.00056144,-0.00179227,0.00135570,0.00
 029205,0.00117478,0.00135010,0.00325024,0.33432650,-0.07597904,0.28502
 720,-0.00087029,0.00004635,0.00003639,-0.00140227,0.00474013,-0.001072
 07,-0.02198653,0.00135734,-0.01872305,-0.09566480,-0.02000636,-0.03163
 085,-0.01491939,-0.00961820,-0.01231091,-0.00012574,-0.00081392,0.0002
 8627,-0.00004305,0.00007404,-0.00001925,-0.00009734,-0.00011436,0.0000
 3345,0.01132802,0.00628083,0.01482001,0.00081531,0.00039155,0.00035804
 ,-0.00107158,-0.00325362,0.00044726,-0.00069266,-0.00040105,-0.0004856
 4,0.00007951,0.00016549,-0.00053040,-0.00163040,0.00270779,0.00062020,
 -0.00089274,-0.00170166,-0.00037258,0.54443309,-0.00019051,0.00018945,
 0.00006906,-0.00097465,-0.00275196,-0.00004086,0.01388041,0.00821555,0
 .01683105,-0.01896422,-0.08854056,-0.02523473,-0.01821481,-0.01061881,
 -0.01955444,0.00014269,0.00061180,-0.00009003,0.00006745,-0.00014678,-
 0.00011521,0.00012308,0.00029220,-0.00024240,-0.00619971,-0.00322780,-
 0.00581677,0.00026278,0.00021571,-0.00022424,-0.00174802,-0.00413766,0
 .00136786,-0.00156141,-0.00092716,0.00071193,0.00019266,0.00018643,-0.
 00051835,0.00333857,-0.00353338,-0.00076004,0.00072744,0.00067992,-0.0
 0001995,0.02122745,0.52167366,0.00032686,-0.00012826,-0.00040191,0.000
 30212,0.00240310,-0.00188332,-0.02520542,0.00457211,-0.01696999,-0.031
 81878,-0.02390817,-0.12582109,0.00075053,-0.00079079,0.00777971,0.0007
 9462,0.00054527,0.00096037,-0.00006197,0.00008437,0.00013126,0.0001522
 1,-0.00010782,0.00010452,-0.01442753,-0.00631466,-0.01536264,0.0006734
 9,0.00093869,0.00009493,0.00215879,0.00290476,0.00023676,0.00085336,0.
 00060371,-0.00034799,0.00021763,-0.00006792,-0.00031382,-0.00112396,0.
 00210213,-0.00063123,-0.00113783,-0.00098248,-0.00011813,0.02359030,-0
 .11615087,0.46703665,0.00005532,-0.00001670,0.00002688,0.00039801,0.00
 063965,-0.00016466,-0.00013815,-0.00123060,0.00170306,-0.00991705,-0.0
 0878406,0.00556074,-0.00054879,0.00035468,-0.00253484,0.00020278,0.000
 43703,-0.00039821,0.00000095,-0.00005120,-0.00001390,0.00004386,0.0000
 6083,-0.00005085,0.00107986,0.00028708,-0.00018751,-0.00004676,-0.0002
 8460,-0.00006089,-0.00023044,-0.00075591,0.00015092,0.00005621,0.00003
 054,0.00019598,0.00004282,-0.00002754,0.00006221,0.00020743,0.00026522
 ,-0.00029196,-0.00046980,-0.00025436,-0.00029623,-0.18958895,-0.112542
 91,0.06367087,0.20437716,-0.00002161,-0.00005432,-0.00011804,-0.000198
 70,-0.00071479,0.00037282,0.00069282,0.00041881,0.00020427,-0.00935110
 ,-0.00991225,0.00497017,-0.00199789,0.00032827,-0.00263006,0.00039905,
 -0.00005472,-0.00029945,-0.00005054,0.00012271,0.00004527,-0.00002866,
 0.00002304,0.00011647,0.00046345,0.00021527,-0.00003311,0.00012526,0.0
 0003531,0.00007726,-0.00062938,-0.00089576,0.00009417,0.00003138,0.000
 12377,-0.00038466,-0.00015014,-0.00000472,-0.00004821,0.00001318,0.000
 05478,-0.00021228,0.00028353,0.00028962,0.00003876,-0.11453344,-0.1387
 0187,0.05571407,0.12207271,0.15152427,0.00023440,0.00002209,0.00000450
 ,-0.00038398,-0.00047733,-0.00006514,0.00032162,-0.00034161,0.00058779
 ,-0.01959283,-0.01713196,0.00881679,-0.00319393,-0.00048309,-0.0041471
 0,-0.00008087,0.00035667,-0.00082873,0.00005127,0.00002695,0.00002562,
 -0.00006122,0.00002130,0.00013955,0.00058860,-0.00013033,0.00132996,0.
 00006552,-0.00006453,-0.00003283,-0.00074950,-0.00148879,0.00026841,0.
 00033372,-0.00001385,0.00049455,0.00015243,0.00005186,0.00021797,0.000
 26869,-0.00003035,-0.00009254,0.00037086,0.00015015,0.00020387,0.06371
 234,0.05585977,-0.07737722,-0.07038939,-0.05513810,0.08381962,0.000077
 31,0.00005936,0.00024491,0.00121798,0.00193893,-0.00094585,-0.00253739
 ,-0.00089592,-0.00160899,-0.00580990,0.00977308,-0.00669464,0.00075112
 ,0.00061661,-0.00017131,-0.00122806,0.00003798,-0.00070346,0.00009430,
 -0.00015934,-0.00001014,-0.00006810,-0.00005589,0.00000310,-0.00002997
 ,-0.00021978,-0.00022510,-0.00009682,-0.00039339,-0.00007699,0.0002109
 5,0.00010853,0.00020579,-0.00068737,-0.00090934,0.00118317,0.00043615,
 0.00001041,0.00024898,-0.00044528,0.00085743,-0.00022289,-0.00087718,-
 0.00068259,-0.00004876,-0.08844589,0.07155943,-0.06206841,0.01054253,-
 0.01650208,0.01496059,0.09655275,-0.00013138,0.00007506,-0.00001950,-0
 .00089634,-0.00097196,0.00023753,-0.00113873,-0.00160696,-0.00272877,-
 0.00609428,0.01207345,-0.00870112,-0.00035701,0.00066363,0.00087522,-0
 .00069539,-0.00054863,0.00032291,-0.00004875,0.00005155,-0.00002568,-0
 .00001740,-0.00005135,-0.00004216,0.00034655,0.00005003,0.00022502,0.0
 0032978,0.00009049,-0.00001809,0.00023199,0.00025545,-0.00003136,-0.00
 117800,-0.00022445,0.00001298,-0.00003863,-0.00001857,-0.00012304,-0.0
 0048709,0.00076443,0.00001512,0.00059290,0.00029691,0.00027392,0.07397
 606,-0.17525264,0.11247078,0.00760950,-0.01305793,0.01190416,-0.077928
 96,0.18736465,0.00024466,-0.00009828,-0.00004524,0.00001855,-0.0003041
 8,-0.00001436,-0.00215122,-0.00346610,-0.00539803,-0.00934707,0.018002
 09,-0.01293368,0.00115625,0.00126535,0.00070437,0.00045804,-0.00003730
 ,0.00040962,0.00006162,-0.00008333,0.00001412,0.00003272,0.00004950,-0
 .00000230,-0.00002018,-0.00004279,-0.00053149,-0.00007527,-0.00064810,
 -0.00009666,0.00033179,0.00005360,-0.00009477,0.00036337,0.00030005,0.
 00049525,0.00000908,0.00003634,0.00011965,-0.00088471,0.00123935,0.000
 29920,0.00018516,0.00015686,0.00041987,-0.06392456,0.11178638,-0.14216
 816,-0.00404564,0.00740624,-0.00633146,0.06822792,-0.12165780,0.154680
 03,-0.00021702,-0.00063107,0.00091995,-0.02713814,0.00247640,-0.015952
 99,0.00688694,-0.00037343,-0.00767958,0.01202839,-0.00111179,0.0073169
 6,-0.00054940,0.00069241,-0.00169730,0.00153346,-0.00120589,0.00077035
 ,0.00035169,0.00092061,-0.00110323,-0.00075767,-0.00086144,-0.00067243
 ,-0.00280772,0.00115478,-0.00205368,0.00001765,0.00036104,0.00009214,-
 0.00062417,-0.00063926,0.00009786,-0.00047100,-0.00020161,-0.00048025,
 -0.00051549,0.00031231,-0.00018636,-0.00151523,0.00237017,0.00210565,0
 .00056586,-0.00255707,0.00228346,-0.10491670,0.02102843,0.02675500,-0.
 01338935,0.01553240,0.01115128,-0.00591727,0.00334663,0.00662457,0.404
 89018,-0.00143749,-0.00097098,0.00116782,-0.00783419,-0.00483607,-0.01
 935095,0.00248990,0.00110816,-0.00430036,0.00815988,-0.01313891,-0.020
 43212,0.00022321,-0.00041150,-0.00050754,-0.00075992,-0.00116939,0.000
 70826,0.00018149,0.00022836,-0.00056347,-0.00049197,-0.00078011,0.0000
 4196,-0.00141645,-0.00096970,-0.00134980,0.00015634,0.00044525,0.00006
 920,0.00002811,0.00051368,0.00023371,-0.00017404,-0.00113873,0.0000396
 4,0.00003433,0.00010570,-0.00024748,0.00002556,-0.00020459,0.00036165,
 -0.00566321,0.00316944,0.00293077,0.02558931,-0.09941652,-0.01859976,-
 0.01188402,0.00942327,0.00847368,0.01187987,-0.01063138,-0.01177568,0.
 08434602,0.55822814,0.00123671,0.00073363,0.00172623,-0.00762074,-0.01
 375760,0.00768227,-0.02455412,-0.00458484,-0.03965004,0.01215884,-0.01
 723258,-0.02416344,-0.00022236,-0.00016414,0.00030070,0.00055462,-0.00
 042270,0.00077430,-0.00012322,0.00067964,-0.00126034,0.00055682,-0.000
 49261,-0.00129404,-0.00398271,-0.00162464,-0.00258917,0.00007209,0.000
 21149,-0.00005492,0.00004027,0.00020782,-0.00018006,-0.00052531,0.0010
 1243,0.00013677,-0.00040310,0.00001738,-0.00038177,0.00279658,-0.00096
 405,-0.00468633,0.00893681,0.00517866,0.00385888,0.02614603,-0.0150673
 6,-0.09239064,0.00708393,-0.00776501,-0.00634264,-0.01275686,0.0085136
 9,0.00978043,-0.04235287,-0.02122764,0.58989546,-0.00279893,-0.0063624
 3,0.00092459,-0.15949342,-0.09640991,0.03442769,-0.10171570,-0.0003905
 3,0.01377288,-0.02444781,0.01463717,0.02319286,0.00056611,-0.00259047,
 0.00058089,-0.00095465,0.00148614,0.00080696,0.00054687,-0.00024549,-0
 .00010703,0.00031304,0.00012735,0.00065267,-0.00455236,0.00479454,-0.0
 0274533,0.00048298,-0.00013215,-0.00033706,0.00070871,0.00085219,0.000
 11937,0.00052336,-0.00058033,0.00018609,0.00084667,-0.00025029,-0.0006
 1306,0.01036659,-0.00637625,-0.01929303,-0.07778289,-0.03027407,-0.024
 78484,-0.03514357,0.01388355,-0.00641688,-0.00206592,0.00151369,0.0004
 9937,-0.00376882,0.00110563,0.00206028,-0.13435673,-0.00201606,-0.0298
 8979,0.55816642,-0.01820074,-0.00708727,0.01684197,-0.04137672,-0.0987
 6685,0.04613019,-0.00827985,-0.04856536,-0.01705249,0.02279655,-0.0096
 9333,-0.02308123,-0.00073824,0.00193683,-0.00032276,-0.00387866,0.0023
 6717,0.00020337,-0.00022526,-0.00147128,0.00346999,-0.00107100,-0.0031
 1134,0.00232163,0.00450162,-0.00266799,0.00091126,0.00046678,0.0008255
 7,-0.00040887,-0.00003967,0.00032372,0.00003202,0.00076860,-0.00046711
 ,0.00023822,0.00039529,-0.00031896,0.00021788,0.00328805,-0.00299684,-
 0.00476890,-0.03067957,0.00727785,-0.02702980,0.01443447,0.00110149,0.
 00245990,0.00153279,-0.00052541,-0.00035687,0.00030024,0.00005321,-0.0
 0083481,-0.02305494,-0.07045546,0.00057142,0.10205952,0.21157519,0.018
 55243,0.01691438,0.00522272,0.01169346,0.04265560,-0.12168839,0.040303
 69,-0.04075228,-0.14024410,0.02038350,-0.01494258,-0.01884890,-0.00087
 596,0.00168974,0.00024096,0.00138335,-0.00002773,-0.00083643,-0.000585
 05,0.00451901,-0.00327651,-0.00057012,-0.00188319,0.00043811,0.0028694
 3,-0.00414371,0.00092457,-0.00044560,0.00004279,0.00030527,-0.00009447
 ,-0.00014291,0.00001918,-0.00056474,0.00022289,-0.00007265,-0.00098645
 ,0.00020444,0.00070851,0.01065422,-0.00651792,-0.02192926,-0.02642251,
 -0.01596827,0.02081791,-0.00210992,0.00570855,0.00552671,0.00047849,-0
 .00117637,-0.00116198,0.00002993,-0.00015874,0.00009336,-0.04307707,0.
 02036694,-0.12595741,-0.00166104,-0.00100274,0.44104764,-0.00007486,0.
 00008166,0.00065864,0.00304435,-0.00043036,-0.00517612,-0.00041622,-0.
 00037037,0.00080491,-0.00305386,0.00198340,0.00020830,-0.00007064,-0.0
 0031163,0.00032947,-0.00028333,0.00020342,0.00002296,0.00004308,-0.000
 05813,-0.00006528,-0.00003277,-0.00033065,-0.00001322,0.00057439,0.000
 12835,0.00057161,0.00002058,-0.00010778,-0.00003155,0.00019065,0.00014
 429,0.00000264,-0.00002709,-0.00002698,0.00005633,0.00007711,-0.000054
 97,-0.00004164,-0.00004413,0.00007085,-0.00017825,-0.00311986,0.000158
 88,-0.00015183,0.00569350,0.02183604,0.00546632,0.00123703,0.00022177,
 -0.00036345,-0.00108904,0.00165881,0.00070281,-0.06399160,-0.07278026,
 -0.00578231,-0.02283065,-0.02501289,-0.00861141,0.08526484,0.00007091,
 -0.00020100,0.00007174,0.00111304,0.00050119,0.00034253,0.00003616,-0.
 00021517,0.00006684,0.00206408,-0.00057576,-0.00008131,0.00009025,0.00
 025176,0.00017541,0.00005376,-0.00008681,0.00026586,-0.00002170,0.0000
 0646,-0.00008150,0.00007755,-0.00007714,-0.00017552,-0.00041808,-0.000
 12620,-0.00038597,0.00002045,0.00003408,-0.00001448,-0.00006272,-0.000
 00030,-0.00000979,-0.00011171,0.00008475,-0.00012705,-0.00008976,-0.00
 005157,-0.00009283,-0.00001839,0.00012229,-0.00018722,0.00029370,-0.00
 020327,-0.00015251,-0.00332335,-0.01416517,-0.00086993,0.00009504,0.00
 182118,0.00002379,0.00101980,-0.00101007,-0.00149767,-0.07625652,-0.28
 530071,-0.02522930,-0.00233752,0.00834284,-0.00129943,0.08136680,0.301
 96086,0.00011770,0.00034219,-0.00028837,0.00189278,0.00022510,-0.00349
 936,-0.00098666,-0.00090682,0.00115530,0.00166610,-0.00100187,-0.00107
 574,0.00009989,0.00027418,-0.00012044,-0.00006244,0.00013151,-0.000344
 93,0.00004409,0.00001432,0.00029910,-0.00008170,0.00019014,0.00051588,
 -0.00027631,-0.00018986,-0.00033162,0.00003636,0.00005289,0.00004109,-
 0.00007689,0.00003754,0.00009071,0.00033466,-0.00016248,0.00013695,0.0
 0014475,0.00004327,0.00018063,-0.00002293,0.00032157,-0.00014360,-0.00
 194609,-0.00003006,0.00002104,-0.00150720,-0.01486741,-0.00122696,-0.0
 0041491,0.00000042,0.00109625,0.00069032,-0.00113047,-0.00086593,-0.00
 435762,-0.02274989,-0.05253171,-0.01695827,-0.01934816,-0.00413716,0.0
 1179810,0.03023270,0.05687747,-0.00121855,-0.00180549,0.00022757,0.001
 50227,0.00111009,-0.00102371,-0.00539256,0.00142613,-0.00195133,-0.001
 21995,0.00031671,0.00111437,0.00005467,0.00004119,0.00005383,0.0002460
 3,-0.00033819,0.00025229,-0.00007118,0.00031809,0.00000822,-0.00154462
 ,-0.00191629,0.00050204,0.00036835,0.00030432,0.00039558,-0.00003731,-
 0.00004496,0.00004062,0.00007545,0.00013842,-0.00005701,-0.00013628,0.
 00024336,-0.00004942,-0.00016643,0.00006281,-0.00010511,0.00070622,-0.
 00050821,-0.00125092,0.00030173,-0.00027669,0.00023619,-0.00580860,-0.
 00870267,0.01624906,-0.00183419,0.00224743,0.00226155,0.00097471,-0.00
 021794,-0.00035301,-0.06873383,-0.02859183,0.06906389,0.00769240,0.009
 10812,-0.02861496,-0.00153924,-0.00359772,0.00943770,0.07568855,-0.001
 42739,-0.00114327,-0.00019628,-0.00093818,0.00090694,-0.00044465,0.000
 79057,-0.00133943,-0.00127706,0.00069040,-0.00049823,-0.00141437,0.000
 15035,0.00007602,-0.00005504,-0.00090523,-0.00109327,-0.00070472,0.000
 04422,0.00001742,-0.00016352,-0.00144774,-0.00059214,-0.00008127,-0.00
 027792,-0.00035102,-0.00041733,-0.00004455,0.00000432,0.00003230,-0.00
 008196,-0.00006158,0.00010964,0.00036997,-0.00079629,0.00004168,0.0000
 6262,0.00001082,0.00011442,-0.00013034,0.00017396,-0.00024218,0.000523
 79,-0.00023553,0.00028026,0.00384412,0.00780469,-0.01577865,0.00163199
 ,-0.00084239,-0.00162459,-0.00056268,0.00137551,0.00045365,-0.02560911
 ,-0.08425398,0.09086516,0.00107918,0.00105573,-0.00033077,-0.00834665,
 -0.01083433,0.02810041,0.03058915,0.09068726,0.00077531,0.00066721,-0.
 00016404,0.00344503,0.00184183,-0.00087951,-0.00391242,0.00101304,-0.0
 0163215,-0.00000090,0.00043410,-0.00033813,-0.00000314,0.00008820,-0.0
 0036102,0.00008968,-0.00019117,-0.00054453,0.00015396,0.00012227,0.000
 59301,0.00060761,0.00080997,0.00140931,-0.00005592,-0.00034587,-0.0002
 1455,-0.00005402,-0.00007708,0.00010382,-0.00001762,-0.00002079,0.0001
 2121,0.00028423,-0.00047820,0.00025080,0.00025511,0.00011079,0.0003109
 6,0.00061193,-0.00018214,-0.00102274,-0.00075002,-0.00056297,0.0001317
 3,0.00246070,0.00516051,-0.00677975,0.00038283,-0.00134541,-0.00055452
 ,-0.00013998,-0.00006591,0.00126870,0.06004686,0.08588694,-0.26362774,
 0.00175332,0.00473259,-0.01961149,0.00006185,-0.00058461,0.00437478,-0
 .06624724,-0.09704843,0.28721075,-0.00080473,-0.00038652,-0.00009602,0
 .00134830,0.00001597,0.00256972,-0.11668563,-0.10382903,0.03990515,0.0
 1020920,0.01621274,-0.00811072,-0.00275546,0.00185895,-0.00139131,-0.0
 0002857,0.00059397,0.00016510,0.00003438,-0.00026615,0.00018660,0.0000
 6526,-0.00000980,0.00000554,0.00091661,-0.00086378,0.00055342,0.000527
 23,0.00092268,-0.00013645,0.00010727,0.00010816,0.00019686,0.00004136,
 -0.00003270,0.00001483,0.00019992,-0.00006394,-0.00022439,-0.01010926,
 -0.01830782,0.00838815,-0.00002638,-0.00008309,0.00061375,0.00095108,0
 .00082892,0.00029964,-0.00001456,-0.00013314,-0.00015705,0.00014332,0.
 00003203,0.00032484,-0.00037286,-0.00006457,-0.00043320,-0.01030168,-0
 .00709450,0.00827079,0.00042778,-0.00006407,0.00042858,0.00009235,-0.0
 0000462,0.00025285,0.12603507,0.00066916,0.00027385,0.00016843,0.00031
 316,0.00084920,-0.00206172,-0.10564039,-0.21010564,0.07057446,-0.01378
 039,-0.01971489,0.00762544,0.00464819,-0.00227676,0.00071244,-0.000016
 03,-0.00028768,-0.00028046,-0.00001995,0.00020175,-0.00008466,-0.00006
 240,-0.00003453,0.00008651,-0.00002975,0.00039109,-0.00069656,-0.00062
 789,-0.00142544,0.00066182,0.00019904,0.00047916,0.00002854,0.00002533
 ,0.00002177,0.00015281,-0.00010280,0.00000565,0.00024047,-0.00282009,-
 0.00462247,0.00236421,0.00026233,-0.00006278,0.00016050,-0.00106898,0.
 00044941,-0.00109957,0.00081484,0.00038382,0.00039099,0.00014828,0.000
 25954,-0.00030336,-0.00003909,0.00045604,0.00054115,0.00642655,0.01126
 760,-0.00397769,-0.00002363,-0.00027791,0.00042079,0.00009417,-0.00007
 118,0.00003512,0.11063031,0.22384038,0.00158468,0.00090829,0.00007430,
 -0.00398555,0.00115709,-0.00573368,0.03739362,0.06663678,-0.07708785,0
 .00144070,0.00470217,-0.00149001,-0.00100337,0.00026109,0.00052554,0.0
 0019092,-0.00041049,0.00007344,0.00002542,0.00045567,-0.00032903,-0.00
 005902,-0.00008794,-0.00002038,-0.00033853,-0.00008658,0.00028007,0.00
 033344,0.00016105,0.00011306,0.00029412,0.00018909,0.00009692,-0.00006
 687,0.00004129,0.00002185,-0.00003838,-0.00000424,0.00007557,-0.009292
 90,-0.01560795,0.00919940,0.00074160,-0.00011724,0.00127783,0.00017546
 ,0.00120755,-0.00007805,-0.00046694,0.00011079,-0.00007071,-0.00012132
 ,-0.00014869,0.00019746,0.00144931,0.00082410,0.00095520,0.02382938,0.
 01607619,-0.01758065,-0.00026888,-0.00038972,-0.00022338,-0.00019018,-
 0.00021865,-0.00004491,-0.05162671,-0.07565966,0.08976801\\0.00001168,
 -0.00001981,0.00000445,0.00001453,0.00002704,-0.00000961,-0.00001392,0
 .00002366,0.00003956,0.00001661,-0.00000107,-0.00001329,0.00000154,-0.
 00000505,-0.00000739,-0.00001847,0.00000418,0.00001296,-0.00000319,-0.
 00000005,0.00000353,0.00000025,0.00000011,0.00000110,-0.00000031,-0.00
 000119,0.00000461,-0.00000435,-0.00000160,-0.00000286,-0.00000351,-0.0
 0000368,0.00000355,-0.00000268,-0.00000088,-0.00000021,0.00000482,0.00
 000053,-0.00000189,0.00000230,0.00000071,0.00000181,-0.00001003,-0.000
 00672,0.00000945,0.00001546,-0.00000272,-0.00001271,-0.00000075,0.0000
 0122,-0.00000498,-0.00000010,0.00000350,-0.00000649,-0.00002570,0.0000
 1264,-0.00000449,0.00001388,-0.00003477,-0.00000458,0.00000268,-0.0000
 0072,-0.00000347,0.00000170,-0.00000010,-0.00000356,-0.00000244,0.0000
 0477,-0.00000548\\\@


 IF GOD HAD MEANT MAN TO SEE THE SUN RISE, HE
 WOULD HAVE SCHEDULED IT FOR A LATER HOUR.
 Job cpu time:       0 days  1 hours  3 minutes  8.2 seconds.
 Elapsed time:       0 days  1 hours  3 minutes  8.3 seconds.
 File lengths (MBytes):  RWF=    149 Int=      0 D2E=      0 Chk=      7 Scr=      1
 Normal termination of Gaussian 16 at Mon Apr 15 12:49:54 2019.
