 Entering Gaussian System, Link 0=g09
 Input=TS1.com
 Output=TS1.log
 Initial command:
 /opt/g09/a02/g09/l1.exe /scratch/Grace/g03/Gau-2068.inp -scrdir=/scratch/Grace/g03/
 Entering Link 1 = /opt/g09/a02/g09/l1.exe PID=      2069.
  
 Copyright (c) 1988,1990,1992,1993,1995,1998,2003,2009, Gaussian, Inc.
                  All Rights Reserved.
  
 This is part of the Gaussian(R) 09 program.  It is based on
 the Gaussian(R) 03 system (copyright 2003, Gaussian, Inc.),
 the Gaussian(R) 98 system (copyright 1998, Gaussian, Inc.),
 the Gaussian(R) 94 system (copyright 1995, Gaussian, Inc.),
 the Gaussian 92(TM) system (copyright 1992, Gaussian, Inc.),
 the Gaussian 90(TM) system (copyright 1990, Gaussian, Inc.),
 the Gaussian 88(TM) system (copyright 1988, Gaussian, Inc.),
 the Gaussian 86(TM) system (copyright 1986, Carnegie Mellon
 University), and the Gaussian 82(TM) system (copyright 1983,
 Carnegie Mellon University). Gaussian is a federally registered
 trademark of Gaussian, Inc.
  
 This software contains proprietary and confidential information,
 including trade secrets, belonging to Gaussian, Inc.
  
 This software is provided under written license and may be
 used, copied, transmitted, or stored only in accord with that
 written license.
  
 The following legend is applicable only to US Government
 contracts under FAR:
  
                    RESTRICTED RIGHTS LEGEND
  
 Use, reproduction and disclosure by the US Government is
 subject to restrictions as set forth in subparagraphs (a)
 and (c) of the Commercial Computer Software - Restricted
 Rights clause in FAR 52.227-19.
  
 Gaussian, Inc.
 340 Quinnipiac St., Bldg. 40, Wallingford CT 06492
  
  
 ---------------------------------------------------------------
 Warning -- This program may not be used in any manner that
 competes with the business of Gaussian, Inc. or will provide
 assistance to any competitor of Gaussian, Inc.  The licensee
 of this program is prohibited from giving any competitor of
 Gaussian, Inc. access to this program.  By using this program,
 the user acknowledges that Gaussian, Inc. is engaged in the
 business of creating and licensing software in the field of
 computational chemistry and represents and warrants to the
 licensee that it is not a competitor of Gaussian, Inc. and that
 it will not use this program in any manner prohibited above.
 ---------------------------------------------------------------
  

 Cite this work as:
 Gaussian 09, Revision A.02,
 M. J. Frisch, G. W. Trucks, H. B. Schlegel, G. E. Scuseria, 
 M. A. Robb, J. R. Cheeseman, G. Scalmani, V. Barone, B. Mennucci, 
 G. A. Petersson, H. Nakatsuji, M. Caricato, X. Li, H. P. Hratchian, 
 A. F. Izmaylov, J. Bloino, G. Zheng, J. L. Sonnenberg, M. Hada, 
 M. Ehara, K. Toyota, R. Fukuda, J. Hasegawa, M. Ishida, T. Nakajima, 
 Y. Honda, O. Kitao, H. Nakai, T. Vreven, J. A. Montgomery, Jr., 
 J. E. Peralta, F. Ogliaro, M. Bearpark, J. J. Heyd, E. Brothers, 
 K. N. Kudin, V. N. Staroverov, R. Kobayashi, J. Normand, 
 K. Raghavachari, A. Rendell, J. C. Burant, S. S. Iyengar, J. Tomasi, 
 M. Cossi, N. Rega, J. M. Millam, M. Klene, J. E. Knox, J. B. Cross, 
 V. Bakken, C. Adamo, J. Jaramillo, R. Gomperts, R. E. Stratmann, 
 O. Yazyev, A. J. Austin, R. Cammi, C. Pomelli, J. W. Ochterski, 
 R. L. Martin, K. Morokuma, V. G. Zakrzewski, G. A. Voth, 
 P. Salvador, J. J. Dannenberg, S. Dapprich, A. D. Daniels, 
 O. Farkas, J. B. Foresman, J. V. Ortiz, J. Cioslowski, 
 and D. J. Fox, Gaussian, Inc., Wallingford CT, 2009.
 
 ******************************************
 Gaussian 09:  AM64L-G09RevA.02 11-Jun-2009
                26-Sep-2018 
 ******************************************
 %chk=TS1.chk
 ----------------------------------------------------------
 #B3LYP/6-31+G(d,p) OPT(TS,CalcFC,Noeigentest) Freq=hpmodes
 ----------------------------------------------------------
 1/5=1,10=4,11=1,14=-1,18=20,26=3,38=1/1,3;
 2/9=110,12=2,17=6,18=5,40=1/2;
 3/5=1,6=6,7=111,11=2,16=1,25=1,30=1,71=2,74=-5/1,2,3;
 4//1;
 5/5=2,38=5/2;
 8/6=4,10=90,11=11/1;
 11/6=1,8=1,9=11,15=111,16=1/1,2,10;
 10/6=1,7=6,13=1/2;
 6/7=2,8=2,9=2,10=2,28=1/1;
 7/10=1,18=20,25=1/1,2,3,16;
 1/5=1,10=4,11=1,14=-1,18=20/3(2);
 2/9=110/2;
 99//99;
 2/9=110/2;
 3/5=1,6=6,7=111,11=2,16=1,25=1,30=1,71=1,74=-5/1,2,3;
 4/5=5,16=3/1;
 5/5=2,38=5/2;
 7//1,2,3,16;
 1/5=1,11=1,14=-1,18=20/3(-5);
 2/9=110/2;
 6/7=2,8=2,9=2,10=2,19=2,28=1/1;
 99/9=1/99;
 ---
 TS1
 ---
 Symbolic Z-matrix:
 Charge =  0 Multiplicity = 1
 6                     1.46386   0.93071  -0.63673 
 6                     1.36018  -0.38637   0.1363 
 6                     0.26934  -0.39626   1.30017 
 6                    -1.03009   0.35266   1.01448 
 6                    -0.75306   1.73052   0.37302 
 6                     0.15302   1.69401  -0.87022 
 1                     2.14816   1.54294  -0.0303 
 1                     1.98755   0.7284   -1.57544 
 1                    -1.5251    0.54      1.98055 
 1                    -1.70441   2.2196    0.12701 
 1                    -0.27401   2.35928   1.13632 
 1                    -0.38217   1.26374  -1.72062 
 1                     0.39004   2.7237   -1.16503 
 1                     0.85014   0.10872   2.08617 
 8                     2.34349  -1.09304   0.30566 
 6                    -1.98669  -0.55628   0.2502 
 1                    -2.25339  -1.41781   0.86698 
 1                    -2.90304  -0.04596  -0.06336 
 6                    -1.34419  -1.14469  -1.10732 
 7                    -0.07906  -1.55463  -0.75162 
 1                    -2.01052  -1.98489  -1.37798 
 1                    -1.41599  -0.33833  -1.8601 
 1                     0.10412  -1.41849   1.65245 
 

 GradGradGradGradGradGradGradGradGradGradGradGradGradGradGradGradGradGrad
 Berny optimization.
 Initialization pass.
                           ----------------------------
                           !    Initial Parameters    !
                           ! (Angstroms and Degrees)  !
 --------------------------                            --------------------------
 ! Name  Definition              Value          Derivative Info.                !
 --------------------------------------------------------------------------------
 ! R1    R(1,2)                  1.5307         calculate D2E/DX2 analytically  !
 ! R2    R(1,6)                  1.5348         calculate D2E/DX2 analytically  !
 ! R3    R(1,7)                  1.1004         calculate D2E/DX2 analytically  !
 ! R4    R(1,8)                  1.0938         calculate D2E/DX2 analytically  !
 ! R5    R(2,3)                  1.5952         calculate D2E/DX2 analytically  !
 ! R6    R(2,15)                 1.2227         calculate D2E/DX2 analytically  !
 ! R7    R(3,4)                  1.5268         calculate D2E/DX2 analytically  !
 ! R8    R(3,14)                 1.1001         calculate D2E/DX2 analytically  !
 ! R9    R(3,23)                 1.0938         calculate D2E/DX2 analytically  !
 ! R10   R(4,5)                  1.5449         calculate D2E/DX2 analytically  !
 ! R11   R(4,9)                  1.1016         calculate D2E/DX2 analytically  !
 ! R12   R(4,16)                 1.5249         calculate D2E/DX2 analytically  !
 ! R13   R(5,6)                  1.5388         calculate D2E/DX2 analytically  !
 ! R14   R(5,10)                 1.0976         calculate D2E/DX2 analytically  !
 ! R15   R(5,11)                 1.0988         calculate D2E/DX2 analytically  !
 ! R16   R(6,12)                 1.093          calculate D2E/DX2 analytically  !
 ! R17   R(6,13)                 1.097          calculate D2E/DX2 analytically  !
 ! R18   R(16,17)                1.0926         calculate D2E/DX2 analytically  !
 ! R19   R(16,18)                1.0947         calculate D2E/DX2 analytically  !
 ! R20   R(16,19)                1.613          calculate D2E/DX2 analytically  !
 ! R21   R(19,20)                1.3766         calculate D2E/DX2 analytically  !
 ! R22   R(19,21)                1.106          calculate D2E/DX2 analytically  !
 ! R23   R(19,22)                1.1055         calculate D2E/DX2 analytically  !
 ! A1    A(2,1,6)              116.5463         calculate D2E/DX2 analytically  !
 ! A2    A(2,1,7)              104.0366         calculate D2E/DX2 analytically  !
 ! A3    A(2,1,8)              107.8604         calculate D2E/DX2 analytically  !
 ! A4    A(6,1,7)              109.7717         calculate D2E/DX2 analytically  !
 ! A5    A(6,1,8)              111.7379         calculate D2E/DX2 analytically  !
 ! A6    A(7,1,8)              106.1489         calculate D2E/DX2 analytically  !
 ! A7    A(1,2,3)              114.8423         calculate D2E/DX2 analytically  !
 ! A8    A(1,2,15)             120.8493         calculate D2E/DX2 analytically  !
 ! A9    A(3,2,15)             116.4431         calculate D2E/DX2 analytically  !
 ! A10   A(2,3,4)              116.26           calculate D2E/DX2 analytically  !
 ! A11   A(2,3,14)              99.0579         calculate D2E/DX2 analytically  !
 ! A12   A(2,3,23)             110.1256         calculate D2E/DX2 analytically  !
 ! A13   A(4,3,14)             110.9703         calculate D2E/DX2 analytically  !
 ! A14   A(4,3,23)             112.9631         calculate D2E/DX2 analytically  !
 ! A15   A(14,3,23)            106.1791         calculate D2E/DX2 analytically  !
 ! A16   A(3,4,5)              111.2575         calculate D2E/DX2 analytically  !
 ! A17   A(3,4,9)              107.5644         calculate D2E/DX2 analytically  !
 ! A18   A(3,4,16)             109.5914         calculate D2E/DX2 analytically  !
 ! A19   A(5,4,9)              107.0398         calculate D2E/DX2 analytically  !
 ! A20   A(5,4,16)             115.8488         calculate D2E/DX2 analytically  !
 ! A21   A(9,4,16)             105.0128         calculate D2E/DX2 analytically  !
 ! A22   A(4,5,6)              114.8271         calculate D2E/DX2 analytically  !
 ! A23   A(4,5,10)             109.575          calculate D2E/DX2 analytically  !
 ! A24   A(4,5,11)             107.4629         calculate D2E/DX2 analytically  !
 ! A25   A(6,5,10)             109.8669         calculate D2E/DX2 analytically  !
 ! A26   A(6,5,11)             108.5475         calculate D2E/DX2 analytically  !
 ! A27   A(10,5,11)            106.1761         calculate D2E/DX2 analytically  !
 ! A28   A(1,6,5)              113.0663         calculate D2E/DX2 analytically  !
 ! A29   A(1,6,12)             109.9247         calculate D2E/DX2 analytically  !
 ! A30   A(1,6,13)             108.8554         calculate D2E/DX2 analytically  !
 ! A31   A(5,6,12)             110.4636         calculate D2E/DX2 analytically  !
 ! A32   A(5,6,13)             108.7888         calculate D2E/DX2 analytically  !
 ! A33   A(12,6,13)            105.4386         calculate D2E/DX2 analytically  !
 ! A34   A(4,16,17)            109.8887         calculate D2E/DX2 analytically  !
 ! A35   A(4,16,18)            113.0034         calculate D2E/DX2 analytically  !
 ! A36   A(4,16,19)            112.915          calculate D2E/DX2 analytically  !
 ! A37   A(17,16,18)           108.962          calculate D2E/DX2 analytically  !
 ! A38   A(17,16,19)           106.5395         calculate D2E/DX2 analytically  !
 ! A39   A(18,16,19)           105.213          calculate D2E/DX2 analytically  !
 ! A40   A(16,19,20)           104.9058         calculate D2E/DX2 analytically  !
 ! A41   A(16,19,21)           104.0696         calculate D2E/DX2 analytically  !
 ! A42   A(16,19,22)           106.3285         calculate D2E/DX2 analytically  !
 ! A43   A(20,19,21)           112.9977         calculate D2E/DX2 analytically  !
 ! A44   A(20,19,22)           116.9263         calculate D2E/DX2 analytically  !
 ! A45   A(21,19,22)           110.3869         calculate D2E/DX2 analytically  !
 ! D1    D(6,1,2,3)            -35.8816         calculate D2E/DX2 analytically  !
 ! D2    D(6,1,2,15)           176.1121         calculate D2E/DX2 analytically  !
 ! D3    D(7,1,2,3)             85.0943         calculate D2E/DX2 analytically  !
 ! D4    D(7,1,2,15)           -62.912          calculate D2E/DX2 analytically  !
 ! D5    D(8,1,2,3)           -162.4623         calculate D2E/DX2 analytically  !
 ! D6    D(8,1,2,15)            49.5314         calculate D2E/DX2 analytically  !
 ! D7    D(2,1,6,5)             42.9345         calculate D2E/DX2 analytically  !
 ! D8    D(2,1,6,12)           -81.0207         calculate D2E/DX2 analytically  !
 ! D9    D(2,1,6,13)           163.9551         calculate D2E/DX2 analytically  !
 ! D10   D(7,1,6,5)            -74.9503         calculate D2E/DX2 analytically  !
 ! D11   D(7,1,6,12)           161.0945         calculate D2E/DX2 analytically  !
 ! D12   D(7,1,6,13)            46.0703         calculate D2E/DX2 analytically  !
 ! D13   D(8,1,6,5)            167.5653         calculate D2E/DX2 analytically  !
 ! D14   D(8,1,6,12)            43.6101         calculate D2E/DX2 analytically  !
 ! D15   D(8,1,6,13)           -71.4142         calculate D2E/DX2 analytically  !
 ! D16   D(1,2,3,4)             37.5974         calculate D2E/DX2 analytically  !
 ! D17   D(1,2,3,14)           -81.2684         calculate D2E/DX2 analytically  !
 ! D18   D(1,2,3,23)           167.6972         calculate D2E/DX2 analytically  !
 ! D19   D(15,2,3,4)          -172.9344         calculate D2E/DX2 analytically  !
 ! D20   D(15,2,3,14)           68.1998         calculate D2E/DX2 analytically  !
 ! D21   D(15,2,3,23)          -42.8345         calculate D2E/DX2 analytically  !
 ! D22   D(2,3,4,5)            -44.9492         calculate D2E/DX2 analytically  !
 ! D23   D(2,3,4,9)           -161.8821         calculate D2E/DX2 analytically  !
 ! D24   D(2,3,4,16)            84.4736         calculate D2E/DX2 analytically  !
 ! D25   D(14,3,4,5)            67.2045         calculate D2E/DX2 analytically  !
 ! D26   D(14,3,4,9)           -49.7284         calculate D2E/DX2 analytically  !
 ! D27   D(14,3,4,16)         -163.3727         calculate D2E/DX2 analytically  !
 ! D28   D(23,3,4,5)          -173.6859         calculate D2E/DX2 analytically  !
 ! D29   D(23,3,4,9)            69.3812         calculate D2E/DX2 analytically  !
 ! D30   D(23,3,4,16)          -44.2631         calculate D2E/DX2 analytically  !
 ! D31   D(3,4,5,6)             52.5916         calculate D2E/DX2 analytically  !
 ! D32   D(3,4,5,10)           176.7804         calculate D2E/DX2 analytically  !
 ! D33   D(3,4,5,11)           -68.2694         calculate D2E/DX2 analytically  !
 ! D34   D(9,4,5,6)            169.8439         calculate D2E/DX2 analytically  !
 ! D35   D(9,4,5,10)           -65.9672         calculate D2E/DX2 analytically  !
 ! D36   D(9,4,5,11)            48.9829         calculate D2E/DX2 analytically  !
 ! D37   D(16,4,5,6)           -73.4423         calculate D2E/DX2 analytically  !
 ! D38   D(16,4,5,10)           50.7465         calculate D2E/DX2 analytically  !
 ! D39   D(16,4,5,11)          165.6967         calculate D2E/DX2 analytically  !
 ! D40   D(3,4,16,17)           63.2514         calculate D2E/DX2 analytically  !
 ! D41   D(3,4,16,18)         -174.8113         calculate D2E/DX2 analytically  !
 ! D42   D(3,4,16,19)          -55.5385         calculate D2E/DX2 analytically  !
 ! D43   D(5,4,16,17)         -169.8749         calculate D2E/DX2 analytically  !
 ! D44   D(5,4,16,18)          -47.9375         calculate D2E/DX2 analytically  !
 ! D45   D(5,4,16,19)           71.3353         calculate D2E/DX2 analytically  !
 ! D46   D(9,4,16,17)          -52.0319         calculate D2E/DX2 analytically  !
 ! D47   D(9,4,16,18)           69.9055         calculate D2E/DX2 analytically  !
 ! D48   D(9,4,16,19)         -170.8217         calculate D2E/DX2 analytically  !
 ! D49   D(4,5,6,1)            -51.6507         calculate D2E/DX2 analytically  !
 ! D50   D(4,5,6,12)            72.0085         calculate D2E/DX2 analytically  !
 ! D51   D(4,5,6,13)          -172.7089         calculate D2E/DX2 analytically  !
 ! D52   D(10,5,6,1)          -175.685          calculate D2E/DX2 analytically  !
 ! D53   D(10,5,6,12)          -52.0258         calculate D2E/DX2 analytically  !
 ! D54   D(10,5,6,13)           63.2567         calculate D2E/DX2 analytically  !
 ! D55   D(11,5,6,1)            68.6134         calculate D2E/DX2 analytically  !
 ! D56   D(11,5,6,12)         -167.7274         calculate D2E/DX2 analytically  !
 ! D57   D(11,5,6,13)          -52.4449         calculate D2E/DX2 analytically  !
 ! D58   D(4,16,19,20)          45.0663         calculate D2E/DX2 analytically  !
 ! D59   D(4,16,19,21)         163.9814         calculate D2E/DX2 analytically  !
 ! D60   D(4,16,19,22)         -79.4257         calculate D2E/DX2 analytically  !
 ! D61   D(17,16,19,20)        -75.6519         calculate D2E/DX2 analytically  !
 ! D62   D(17,16,19,21)         43.2633         calculate D2E/DX2 analytically  !
 ! D63   D(17,16,19,22)        159.8561         calculate D2E/DX2 analytically  !
 ! D64   D(18,16,19,20)        168.7515         calculate D2E/DX2 analytically  !
 ! D65   D(18,16,19,21)        -72.3333         calculate D2E/DX2 analytically  !
 ! D66   D(18,16,19,22)         44.2595         calculate D2E/DX2 analytically  !
 --------------------------------------------------------------------------------
 Trust Radius=3.00D-01 FncErr=1.00D-07 GrdErr=1.00D-06
 Number of steps in this run= 138 maximum allowed number of steps= 138.
 Search for a saddle point of order  1.
 GradGradGradGradGradGradGradGradGradGradGradGradGradGradGradGradGradGrad

                          Input orientation:                          
 ---------------------------------------------------------------------
 Center     Atomic      Atomic             Coordinates (Angstroms)
 Number     Number       Type             X           Y           Z
 ---------------------------------------------------------------------
      1          6           0        1.463859    0.930708   -0.636728
      2          6           0        1.360177   -0.386368    0.136302
      3          6           0        0.269341   -0.396256    1.300168
      4          6           0       -1.030094    0.352656    1.014480
      5          6           0       -0.753063    1.730524    0.373019
      6          6           0        0.153016    1.694013   -0.870223
      7          1           0        2.148155    1.542943   -0.030304
      8          1           0        1.987553    0.728397   -1.575439
      9          1           0       -1.525095    0.540003    1.980551
     10          1           0       -1.704412    2.219601    0.127006
     11          1           0       -0.274014    2.359284    1.136318
     12          1           0       -0.382169    1.263744   -1.720623
     13          1           0        0.390039    2.723695   -1.165029
     14          1           0        0.850136    0.108718    2.086174
     15          8           0        2.343494   -1.093037    0.305662
     16          6           0       -1.986693   -0.556283    0.250197
     17          1           0       -2.253394   -1.417812    0.866979
     18          1           0       -2.903038   -0.045960   -0.063361
     19          6           0       -1.344193   -1.144692   -1.107316
     20          7           0       -0.079060   -1.554632   -0.751618
     21          1           0       -2.010525   -1.984886   -1.377977
     22          1           0       -1.415986   -0.338334   -1.860103
     23          1           0        0.104120   -1.418488    1.652448
 ---------------------------------------------------------------------
                    Distance matrix (angstroms):
                    1          2          3          4          5
     1  C    0.000000
     2  C    1.530691   0.000000
     3  C    2.634250   1.595182   0.000000
     4  C    3.046380   2.651556   1.526767   0.000000
     5  C    2.563989   3.000508   2.535371   1.544907   0.000000
     6  C    1.534752   2.607358   3.015519   2.598287   1.538819
     7  H    1.100383   2.090672   3.010081   3.551003   2.935119
     8  H    1.093784   2.136904   3.533584   3.994378   3.508807
     9  H    3.992073   3.547423   2.135299   1.101553   2.144186
    10  H    3.504636   4.022793   3.480620   2.174350   1.097626
    11  H    2.864389   3.348017   2.813376   2.147803   1.098841
    12  H    2.166463   3.034273   3.507883   2.954772   2.176875
    13  H    2.155689   3.508151   3.978173   3.519782   2.158393
    14  H    2.909728   2.075392   1.100058   2.177912   2.852263
    15  O    2.399458   1.222692   2.403468   3.738121   4.191145
    16  C    3.860581   3.353115   2.493539   1.524920   2.601233
    17  H    4.647004   3.828271   2.755979   2.157030   3.522358
    18  H    4.511366   4.281442   3.470721   2.197397   2.822891
    19  C    3.523336   3.071687   2.993264   2.615861   3.287506
    20  N    2.927578   2.055394   2.381815   2.767908   3.537137
    21  H    4.595811   4.026156   3.859274   3.485570   4.295517
    22  H    3.376481   3.419798   3.582038   2.981544   3.115521
    23  H    3.550766   2.222982   1.093781   2.197816   3.505421
                    6          7          8          9         10
     6  C    0.000000
     7  H    2.169992   0.000000
     8  H    2.189810   1.754058   0.000000
     9  H    3.503528   4.306065   5.001925   0.000000
    10  H    2.172728   3.914701   4.330429   2.507755   0.000000
    11  H    2.156652   2.809684   3.889486   2.363835   1.756206
    12  H    1.093039   3.055760   2.433774   3.940656   2.464898
    13  H    1.096966   2.402654   2.588764   4.281463   2.512009
    14  H    3.426284   2.867287   3.883958   2.416379   3.849660
    15  O    3.734775   2.664474   2.642510   4.520847   5.233644
    16  C    3.301140   4.645686   4.558287   2.099772   2.792918
    17  H    4.300248   5.380039   5.343898   2.367172   3.752295
    18  H    3.608046   5.295305   5.177247   2.533704   2.570158
    19  C    3.218089   4.536500   3.850731   3.522193   3.601635
    20  N    3.259083   3.882750   3.187757   3.734068   4.202212
    21  H    4.298025   5.617510   4.835858   4.229706   4.476203
    22  H    2.751738   4.426112   3.578132   3.941320   3.251895
    23  H    4.006735   3.972381   4.309952   2.568595   4.339753
                   11         12         13         14         15
    11  H    0.000000
    12  H    3.061702   0.000000
    13  H    2.422800   1.742540   0.000000
    14  H    2.689049   4.164657   4.197632   0.000000
    15  O    4.411333   4.133943   4.532809   2.616210   0.000000
    16  C    3.495570   3.125880   4.290685   3.443928   4.363680
    17  H    4.272814   4.169881   5.316848   3.667237   4.642406
    18  H    3.759813   3.288863   4.441736   4.327903   5.362709
    19  C    4.296164   2.664995   4.239730   4.072407   3.949457
    20  N    4.349833   2.995678   4.323777   3.418070   2.683222
    21  H    5.311211   3.650006   5.289498   4.956501   4.752633
    22  H    4.190439   1.911776   3.622275   4.572556   4.403840
    23  H    3.831571   4.336871   5.017729   1.754143   2.633353
                   16         17         18         19         20
    16  C    0.000000
    17  H    1.092603   0.000000
    18  H    1.094731   1.780322   0.000000
    19  C    1.613032   2.190681   2.174178   0.000000
    20  N    2.374742   2.714094   3.274850   1.376638   0.000000
    21  H    2.166201   2.328172   2.506836   1.105975   2.075572
    22  H    2.196947   3.050164   2.350551   1.105466   2.120257
    23  H    2.661053   2.484921   3.724357   3.128717   2.414875
                   21         22         23
    21  H    0.000000
    22  H    1.815780   0.000000
    23  H    3.738450   3.976867   0.000000
 Stoichiometry    C8H13NO
 Framework group  C1[X(C8H13NO)]
 Deg. of freedom    63
 Full point group                 C1      NOp   1
 Largest Abelian subgroup         C1      NOp   1
 Largest concise Abelian subgroup C1      NOp   1
                         Standard orientation:                         
 ---------------------------------------------------------------------
 Center     Atomic      Atomic             Coordinates (Angstroms)
 Number     Number       Type             X           Y           Z
 ---------------------------------------------------------------------
      1          6           0        1.463859    0.930708   -0.636728
      2          6           0        1.360177   -0.386368    0.136302
      3          6           0        0.269341   -0.396256    1.300168
      4          6           0       -1.030094    0.352656    1.014480
      5          6           0       -0.753063    1.730524    0.373019
      6          6           0        0.153016    1.694013   -0.870223
      7          1           0        2.148155    1.542943   -0.030304
      8          1           0        1.987553    0.728397   -1.575439
      9          1           0       -1.525095    0.540003    1.980551
     10          1           0       -1.704412    2.219601    0.127006
     11          1           0       -0.274014    2.359284    1.136318
     12          1           0       -0.382169    1.263744   -1.720623
     13          1           0        0.390038    2.723695   -1.165029
     14          1           0        0.850136    0.108718    2.086174
     15          8           0        2.343494   -1.093037    0.305662
     16          6           0       -1.986693   -0.556283    0.250197
     17          1           0       -2.253394   -1.417812    0.866979
     18          1           0       -2.903038   -0.045960   -0.063361
     19          6           0       -1.344193   -1.144692   -1.107316
     20          7           0       -0.079060   -1.554632   -0.751618
     21          1           0       -2.010525   -1.984886   -1.377977
     22          1           0       -1.415986   -0.338334   -1.860103
     23          1           0        0.104120   -1.418488    1.652448
 ---------------------------------------------------------------------
 Rotational constants (GHZ):      1.7603598      1.4060198      1.1252446
 Standard basis: 6-31+G(d,p) (6D, 7F)
 There are   255 symmetry adapted basis functions of A   symmetry.
 Integral buffers will be    131072 words long.
 Raffenetti 2 integral format.
 Two-electron integral symmetry is turned on.
   255 basis functions,   411 primitive gaussians,   255 cartesian basis functions
    38 alpha electrons       38 beta electrons
       nuclear repulsion energy       565.9478752565 Hartrees.
 NAtoms=   23 NActive=   23 NUniq=   23 SFac= 7.50D-01 NAtFMM=   80 NAOKFM=F Big=F
 One-electron integrals computed using PRISM.
 NBasis=   255 RedAO= T  NBF=   255
 NBsUse=   255 1.00D-06 NBFU=   255
 Harris functional with IExCor=  402 diagonalized for initial guess.
 ExpMin= 4.38D-02 ExpMax= 5.48D+03 ExpMxC= 8.25D+02 IAcc=2 IRadAn=         0 AccDes= 0.00D+00
 HarFok:  IExCor=  402 AccDes= 0.00D+00 IRadAn=         0 IDoV= 1
 ScaDFX=  1.000000  1.000000  1.000000  1.000000
 FoFCou: FMM=F IPFlag=           0 FMFlag=      100000 FMFlg1=           0
         NFxFlg=           0 DoJE=T BraDBF=F KetDBF=T FulRan=T
         Omega=  0.000000  0.000000  1.000000  0.000000  0.000000 ICntrl=     500 IOpCl=  0
         NMat0=    1 NMatS0=    1 NMatT0=    0 NMatD0=    1 NMtDS0=    0 NMtDT0=    0
         I1Cent=           4 NGrid=           0.
 Petite list used in FoFCou.
 Initial guess orbital symmetries:
       Occupied  (A) (A) (A) (A) (A) (A) (A) (A) (A) (A) (A) (A)
                 (A) (A) (A) (A) (A) (A) (A) (A) (A) (A) (A) (A)
                 (A) (A) (A) (A) (A) (A) (A) (A) (A) (A) (A) (A)
                 (A) (A)
       Virtual   (A) (A) (A) (A) (A) (A) (A) (A) (A) (A) (A) (A)
                 (A) (A) (A) (A) (A) (A) (A) (A) (A) (A) (A) (A)
                 (A) (A) (A) (A) (A) (A) (A) (A) (A) (A) (A) (A)
                 (A) (A) (A) (A) (A) (A) (A) (A) (A) (A) (A) (A)
                 (A) (A) (A) (A) (A) (A) (A) (A) (A) (A) (A) (A)
                 (A) (A) (A) (A) (A) (A) (A) (A) (A) (A) (A) (A)
                 (A) (A) (A) (A) (A) (A) (A) (A) (A) (A) (A) (A)
                 (A) (A) (A) (A) (A) (A) (A) (A) (A) (A) (A) (A)
                 (A) (A) (A) (A) (A) (A) (A) (A) (A) (A) (A) (A)
                 (A) (A) (A) (A) (A) (A) (A) (A) (A) (A) (A) (A)
                 (A) (A) (A) (A) (A) (A) (A) (A) (A) (A) (A) (A)
                 (A) (A) (A) (A) (A) (A) (A) (A) (A) (A) (A) (A)
                 (A) (A) (A) (A) (A) (A) (A) (A) (A) (A) (A) (A)
                 (A) (A) (A) (A) (A) (A) (A) (A) (A) (A) (A) (A)
                 (A) (A) (A) (A) (A) (A) (A) (A) (A) (A) (A) (A)
                 (A) (A) (A) (A) (A) (A) (A) (A) (A) (A) (A) (A)
                 (A) (A) (A) (A) (A) (A) (A) (A) (A) (A) (A) (A)
                 (A) (A) (A) (A) (A) (A) (A) (A) (A) (A) (A) (A)
                 (A)
 The electronic state of the initial guess is 1-A.
 Requested convergence on RMS density matrix=1.00D-08 within 128 cycles.
 Requested convergence on MAX density matrix=1.00D-06.
 Requested convergence on             energy=1.00D-06.
 No special actions if energy rises.
 EnCoef did     3 forward-backward iterations
 EnCoef did     9 forward-backward iterations
 SCF Done:  E(RB3LYP) =  -442.511904163     A.U. after   19 cycles
             Convg  =    0.6033D-08             -V/T =  2.0096
 Range of M.O.s used for correlation:     1   255
 NBasis=   255 NAE=    38 NBE=    38 NFC=     0 NFV=     0
 NROrb=    255 NOA=    38 NOB=    38 NVA=   217 NVB=   217

 **** Warning!!: The largest alpha MO coefficient is  0.48403629D+02


 **** Warning!!: The smallest alpha delta epsilon is  0.76766575D-01

 Symmetrizing basis deriv contribution to polar:
 IMax=3 JMax=2 DiffMx= 0.00D+00
 G2DrvN: will do    24 centers at a time, making    1 passes doing MaxLOS=2.
 Calling FoFCou, ICntrl=  3107 FMM=F I1Cent=   0 AccDes= 0.00D+00.
 FoFDir/FoFCou used for L=0 through L=2.
 End of G2Drv Frequency-dependent properties file   721 does not exist.
 End of G2Drv Frequency-dependent properties file   722 does not exist.
          IDoAtm=11111111111111111111111
          Differentiating once with respect to nuclear coordinates.
          There are    72 degrees of freedom in the 1st order CPHF.  IDoFFX=5.
     66 vectors produced by pass  0 Test12= 1.15D-10 1.39D-07 XBig12= 3.27D-01 3.16D-01.
 AX will form    66 AO Fock derivatives at one time.
     66 vectors produced by pass  1 Test12= 1.15D-10 1.39D-07 XBig12= 2.65D-01 1.10D-01.
     66 vectors produced by pass  2 Test12= 1.15D-10 1.39D-07 XBig12= 6.93D-04 4.98D-03.
     66 vectors produced by pass  3 Test12= 1.15D-10 1.39D-07 XBig12= 2.64D-06 1.92D-04.
     37 vectors produced by pass  4 Test12= 1.15D-10 1.39D-07 XBig12= 3.26D-09 5.62D-06.
      1 vectors produced by pass  5 Test12= 1.15D-10 1.39D-07 XBig12= 3.53D-12 1.84D-07.
 Inverted reduced A of dimension   302 with in-core refinement.
 End of Minotr Frequency-dependent properties file   721 does not exist.
 End of Minotr Frequency-dependent properties file   722 does not exist.

 **********************************************************************

            Population analysis using the SCF density.

 **********************************************************************

 Orbital symmetries:
       Occupied  (A) (A) (A) (A) (A) (A) (A) (A) (A) (A) (A) (A)
                 (A) (A) (A) (A) (A) (A) (A) (A) (A) (A) (A) (A)
                 (A) (A) (A) (A) (A) (A) (A) (A) (A) (A) (A) (A)
                 (A) (A)
       Virtual   (A) (A) (A) (A) (A) (A) (A) (A) (A) (A) (A) (A)
                 (A) (A) (A) (A) (A) (A) (A) (A) (A) (A) (A) (A)
                 (A) (A) (A) (A) (A) (A) (A) (A) (A) (A) (A) (A)
                 (A) (A) (A) (A) (A) (A) (A) (A) (A) (A) (A) (A)
                 (A) (A) (A) (A) (A) (A) (A) (A) (A) (A) (A) (A)
                 (A) (A) (A) (A) (A) (A) (A) (A) (A) (A) (A) (A)
                 (A) (A) (A) (A) (A) (A) (A) (A) (A) (A) (A) (A)
                 (A) (A) (A) (A) (A) (A) (A) (A) (A) (A) (A) (A)
                 (A) (A) (A) (A) (A) (A) (A) (A) (A) (A) (A) (A)
                 (A) (A) (A) (A) (A) (A) (A) (A) (A) (A) (A) (A)
                 (A) (A) (A) (A) (A) (A) (A) (A) (A) (A) (A) (A)
                 (A) (A) (A) (A) (A) (A) (A) (A) (A) (A) (A) (A)
                 (A) (A) (A) (A) (A) (A) (A) (A) (A) (A) (A) (A)
                 (A) (A) (A) (A) (A) (A) (A) (A) (A) (A) (A) (A)
                 (A) (A) (A) (A) (A) (A) (A) (A) (A) (A) (A) (A)
                 (A) (A) (A) (A) (A) (A) (A) (A) (A) (A) (A) (A)
                 (A) (A) (A) (A) (A) (A) (A) (A) (A) (A) (A) (A)
                 (A) (A) (A) (A) (A) (A) (A) (A) (A) (A) (A) (A)
                 (A)
 The electronic state is 1-A.
 Alpha  occ. eigenvalues --  -19.12033 -14.37380 -10.28322 -10.23806 -10.23757
 Alpha  occ. eigenvalues --  -10.21937 -10.21026 -10.20449 -10.19856 -10.19480
 Alpha  occ. eigenvalues --   -1.02401  -0.89739  -0.83452  -0.78188  -0.74062
 Alpha  occ. eigenvalues --   -0.71182  -0.63467  -0.60803  -0.58011  -0.53632
 Alpha  occ. eigenvalues --   -0.49087  -0.48040  -0.47075  -0.45096  -0.44853
 Alpha  occ. eigenvalues --   -0.43750  -0.41987  -0.41033  -0.39917  -0.38336
 Alpha  occ. eigenvalues --   -0.37203  -0.35791  -0.34334  -0.33589  -0.33266
 Alpha  occ. eigenvalues --   -0.30312  -0.23421  -0.22082
 Alpha virt. eigenvalues --   -0.14405  -0.01170   0.00173   0.00717   0.01977
 Alpha virt. eigenvalues --    0.02839   0.03494   0.03642   0.04290   0.05017
 Alpha virt. eigenvalues --    0.05476   0.07184   0.07482   0.08144   0.08344
 Alpha virt. eigenvalues --    0.09040   0.09889   0.10235   0.11295   0.12222
 Alpha virt. eigenvalues --    0.12410   0.12984   0.13123   0.13723   0.14242
 Alpha virt. eigenvalues --    0.15090   0.15744   0.16831   0.17522   0.17912
 Alpha virt. eigenvalues --    0.18040   0.18343   0.19225   0.19815   0.19907
 Alpha virt. eigenvalues --    0.20582   0.21425   0.22267   0.22891   0.23116
 Alpha virt. eigenvalues --    0.23922   0.24504   0.25403   0.26213   0.26494
 Alpha virt. eigenvalues --    0.27986   0.28165   0.28637   0.30518   0.31173
 Alpha virt. eigenvalues --    0.31321   0.32520   0.33227   0.34674   0.35608
 Alpha virt. eigenvalues --    0.36128   0.36702   0.37068   0.38535   0.39515
 Alpha virt. eigenvalues --    0.39793   0.41228   0.42898   0.44147   0.46167
 Alpha virt. eigenvalues --    0.59676   0.62093   0.62897   0.63295   0.65540
 Alpha virt. eigenvalues --    0.66663   0.68806   0.69567   0.71274   0.72839
 Alpha virt. eigenvalues --    0.73547   0.75649   0.76345   0.77487   0.78204
 Alpha virt. eigenvalues --    0.80068   0.82607   0.83046   0.85830   0.87491
 Alpha virt. eigenvalues --    0.90989   0.93577   0.95519   0.95637   0.96087
 Alpha virt. eigenvalues --    0.97116   0.99129   1.02444   1.04188   1.04579
 Alpha virt. eigenvalues --    1.06058   1.07461   1.08407   1.10502   1.11166
 Alpha virt. eigenvalues --    1.13343   1.13876   1.15546   1.16612   1.17328
 Alpha virt. eigenvalues --    1.21107   1.23989   1.28492   1.29542   1.30717
 Alpha virt. eigenvalues --    1.34512   1.36755   1.37950   1.39762   1.41804
 Alpha virt. eigenvalues --    1.46936   1.48010   1.53125   1.55808   1.57840
 Alpha virt. eigenvalues --    1.59899   1.61693   1.65678   1.68282   1.71242
 Alpha virt. eigenvalues --    1.73662   1.74463   1.77178   1.77514   1.80345
 Alpha virt. eigenvalues --    1.82648   1.83135   1.84137   1.85421   1.88440
 Alpha virt. eigenvalues --    1.90119   1.94112   1.95280   1.97270   2.00446
 Alpha virt. eigenvalues --    2.01041   2.02886   2.03955   2.07203   2.08541
 Alpha virt. eigenvalues --    2.10510   2.11681   2.12406   2.15715   2.17993
 Alpha virt. eigenvalues --    2.18880   2.20633   2.22431   2.25078   2.26132
 Alpha virt. eigenvalues --    2.28287   2.29531   2.30373   2.34548   2.35449
 Alpha virt. eigenvalues --    2.38128   2.40287   2.42711   2.43456   2.44322
 Alpha virt. eigenvalues --    2.44989   2.50663   2.51317   2.53436   2.54443
 Alpha virt. eigenvalues --    2.57690   2.59590   2.60857   2.64831   2.65541
 Alpha virt. eigenvalues --    2.66635   2.67605   2.71104   2.72223   2.75074
 Alpha virt. eigenvalues --    2.77294   2.78297   2.81564   2.82665   2.85585
 Alpha virt. eigenvalues --    2.86347   2.88376   2.90017   2.90870   2.92536
 Alpha virt. eigenvalues --    2.94009   2.95413   3.02051   3.24004   3.27331
 Alpha virt. eigenvalues --    3.29517   3.32425   3.35567   3.35822   3.40754
 Alpha virt. eigenvalues --    3.44640   3.47825   3.50173   3.50785   3.52886
 Alpha virt. eigenvalues --    3.53937   3.56552   4.13657   4.29505   4.37017
 Alpha virt. eigenvalues --    4.49144   4.54046   4.59151   4.68415   4.76699
 Alpha virt. eigenvalues --    4.79653   4.86004
          Condensed to atoms (all electrons):
              1          2          3          4          5          6
     1  C    6.452141  -1.031332   0.278442   0.140636  -0.044856  -0.059036
     2  C   -1.031332   8.140996  -1.830154   0.019641   0.020135   0.086383
     3  C    0.278442  -1.830154   7.693109  -0.479402   0.017691  -0.007791
     4  C    0.140636   0.019641  -0.479402   6.772658  -0.258467  -0.105636
     5  C   -0.044856   0.020135   0.017691  -0.258467   5.848685   0.056466
     6  C   -0.059036   0.086383  -0.007791  -0.105636   0.056466   5.625471
     7  H    0.409317  -0.051489   0.003436   0.000400   0.006712  -0.051539
     8  H    0.429248  -0.091843   0.035505  -0.010888   0.021496  -0.056967
     9  H   -0.011360   0.001185   0.018770   0.252254  -0.015450   0.025717
    10  H    0.038834  -0.030081   0.029360  -0.074593   0.415529  -0.053738
    11  H   -0.009627   0.010473  -0.020398  -0.048554   0.432275  -0.059906
    12  H   -0.088322   0.058843  -0.028677   0.003421  -0.021906   0.390014
    13  H   -0.028828   0.012385  -0.006827   0.030147  -0.053769   0.378446
    14  H   -0.019269   0.029857   0.328670  -0.019829  -0.006427  -0.003512
    15  O   -0.153131   0.499435  -0.081695   0.009647  -0.022072   0.017908
    16  C   -0.139097   0.284546  -0.076927  -0.316751   0.080575  -0.027228
    17  H    0.001852   0.002665  -0.033481  -0.022982   0.016498  -0.006495
    18  H    0.005270  -0.016842   0.034933  -0.072337  -0.011038   0.004045
    19  C    0.207954  -0.404586   0.164795  -0.005926   0.055265  -0.138958
    20  N   -0.077012   0.128793  -0.023249  -0.021122  -0.103288   0.110395
    21  H    0.000709  -0.008332  -0.003140   0.066489  -0.018220   0.011990
    22  H   -0.005323   0.027024   0.000934  -0.105239   0.076033  -0.058145
    23  H    0.002685   0.019105   0.352706  -0.026939   0.006443   0.000030
              7          8          9         10         11         12
     1  C    0.409317   0.429248  -0.011360   0.038834  -0.009627  -0.088322
     2  C   -0.051489  -0.091843   0.001185  -0.030081   0.010473   0.058843
     3  C    0.003436   0.035505   0.018770   0.029360  -0.020398  -0.028677
     4  C    0.000400  -0.010888   0.252254  -0.074593  -0.048554   0.003421
     5  C    0.006712   0.021496  -0.015450   0.415529   0.432275  -0.021906
     6  C   -0.051539  -0.056967   0.025717  -0.053738  -0.059906   0.390014
     7  H    0.556504  -0.025426  -0.000011  -0.000074   0.002122   0.004873
     8  H   -0.025426   0.535583   0.000008  -0.000115  -0.000029  -0.005411
     9  H   -0.000011   0.000008   0.598335  -0.002520  -0.006247  -0.000110
    10  H   -0.000074  -0.000115  -0.002520   0.582164  -0.030602  -0.005265
    11  H    0.002122  -0.000029  -0.006247  -0.030602   0.573114   0.005273
    12  H    0.004873  -0.005411  -0.000110  -0.005265   0.005273   0.594737
    13  H   -0.006745  -0.000463  -0.000143  -0.001804  -0.006231  -0.032498
    14  H    0.000479   0.000035  -0.003353  -0.000023   0.001733   0.000036
    15  O   -0.010129   0.001492  -0.000218   0.000187  -0.000783  -0.001439
    16  C   -0.002605   0.003005   0.005965  -0.012130   0.015350   0.023196
    17  H   -0.000001   0.000000  -0.006148   0.000116  -0.000156  -0.000048
    18  H   -0.000002   0.000001  -0.000749   0.003126   0.000096   0.000100
    19  C   -0.002321   0.001521  -0.000370   0.004472  -0.002947  -0.027594
    20  N    0.005888  -0.005050   0.004836   0.000679  -0.000245  -0.001421
    21  H    0.000004  -0.000017  -0.000076  -0.000017   0.000004   0.000287
    22  H   -0.000104   0.000519   0.000011   0.000234  -0.000059   0.003909
    23  H   -0.000061  -0.000096  -0.002528  -0.000120   0.000001  -0.000008
             13         14         15         16         17         18
     1  C   -0.028828  -0.019269  -0.153131  -0.139097   0.001852   0.005270
     2  C    0.012385   0.029857   0.499435   0.284546   0.002665  -0.016842
     3  C   -0.006827   0.328670  -0.081695  -0.076927  -0.033481   0.034933
     4  C    0.030147  -0.019829   0.009647  -0.316751  -0.022982  -0.072337
     5  C   -0.053769  -0.006427  -0.022072   0.080575   0.016498  -0.011038
     6  C    0.378446  -0.003512   0.017908  -0.027228  -0.006495   0.004045
     7  H   -0.006745   0.000479  -0.010129  -0.002605  -0.000001  -0.000002
     8  H   -0.000463   0.000035   0.001492   0.003005   0.000000   0.000001
     9  H   -0.000143  -0.003353  -0.000218   0.005965  -0.006148  -0.000749
    10  H   -0.001804  -0.000023   0.000187  -0.012130   0.000116   0.003126
    11  H   -0.006231   0.001733  -0.000783   0.015350  -0.000156   0.000096
    12  H   -0.032498   0.000036  -0.001439   0.023196  -0.000048   0.000100
    13  H    0.579055  -0.000058  -0.000389  -0.004907   0.000004  -0.000023
    14  H   -0.000058   0.529002  -0.021922   0.017507   0.000010  -0.000185
    15  O   -0.000389  -0.021922   8.226303  -0.018675  -0.000117   0.000147
    16  C   -0.004907   0.017507  -0.018675   5.891547   0.393720   0.398599
    17  H    0.000004   0.000010  -0.000117   0.393720   0.542316  -0.028946
    18  H   -0.000023  -0.000185   0.000147   0.398599  -0.028946   0.553192
    19  C    0.003857   0.001295   0.024848  -0.076282  -0.030511  -0.028829
    20  N   -0.001225   0.002699  -0.085199   0.083067  -0.001184   0.003691
    21  H   -0.000005   0.000006  -0.000477  -0.068928  -0.009847  -0.003605
    22  H    0.000123  -0.000011   0.000117   0.022624   0.004851  -0.004459
    23  H    0.000010  -0.021945  -0.002170  -0.010631   0.002869   0.000146
             19         20         21         22         23
     1  C    0.207954  -0.077012   0.000709  -0.005323   0.002685
     2  C   -0.404586   0.128793  -0.008332   0.027024   0.019105
     3  C    0.164795  -0.023249  -0.003140   0.000934   0.352706
     4  C   -0.005926  -0.021122   0.066489  -0.105239  -0.026939
     5  C    0.055265  -0.103288  -0.018220   0.076033   0.006443
     6  C   -0.138958   0.110395   0.011990  -0.058145   0.000030
     7  H   -0.002321   0.005888   0.000004  -0.000104  -0.000061
     8  H    0.001521  -0.005050  -0.000017   0.000519  -0.000096
     9  H   -0.000370   0.004836  -0.000076   0.000011  -0.002528
    10  H    0.004472   0.000679  -0.000017   0.000234  -0.000120
    11  H   -0.002947  -0.000245   0.000004  -0.000059   0.000001
    12  H   -0.027594  -0.001421   0.000287   0.003909  -0.000008
    13  H    0.003857  -0.001225  -0.000005   0.000123   0.000010
    14  H    0.001295   0.002699   0.000006  -0.000011  -0.021945
    15  O    0.024848  -0.085199  -0.000477   0.000117  -0.002170
    16  C   -0.076282   0.083067  -0.068928   0.022624  -0.010631
    17  H   -0.030511  -0.001184  -0.009847   0.004851   0.002869
    18  H   -0.028829   0.003691  -0.003605  -0.004459   0.000146
    19  C    5.655855   0.003123   0.404552   0.381312  -0.010866
    20  N    0.003123   7.268612  -0.075194  -0.072930  -0.005231
    21  H    0.404552  -0.075194   0.628117  -0.073199  -0.000319
    22  H    0.381312  -0.072930  -0.073199   0.675573   0.000184
    23  H   -0.010866  -0.005231  -0.000319   0.000184   0.503887
 Mulliken atomic charges:
              1
     1  C   -0.299895
     2  C    0.123190
     3  C   -0.366610
     4  C    0.273373
     5  C   -0.498308
     6  C   -0.077912
     7  H    0.160772
     8  H    0.167892
     9  H    0.142202
    10  H    0.136380
    11  H    0.145344
    12  H    0.128009
    13  H    0.139886
    14  H    0.185206
    15  O   -0.381666
    16  C   -0.465541
    17  H    0.175015
    18  H    0.163668
    19  C   -0.179658
    20  N   -0.139434
    21  H    0.149217
    22  H    0.126021
    23  H    0.192849
 Sum of Mulliken atomic charges =   0.00000
 Mulliken charges with hydrogens summed into heavy atoms:
              1
     1  C    0.028770
     2  C    0.123190
     3  C    0.011445
     4  C    0.415575
     5  C   -0.216584
     6  C    0.189984
    15  O   -0.381666
    16  C   -0.126859
    19  C    0.095580
    20  N   -0.139434
 Sum of Mulliken charges with hydrogens summed into heavy atoms =   0.00000
 APT atomic charges:
              1
     1  C   -0.879088
     2  C   -0.483957
     3  C   -0.677822
     4  C   -0.133177
     5  C   -1.168982
     6  C   -0.662876
     7  H    0.473142
     8  H    0.491816
     9  H    0.507348
    10  H    0.483045
    11  H    0.436983
    12  H    0.305136
    13  H    0.564070
    14  H    0.485419
    15  O   -0.094914
    16  C   -1.125499
    17  H    0.497760
    18  H    0.518915
    19  C   -0.678515
    20  N   -0.183119
    21  H    0.580205
    22  H    0.294582
    23  H    0.449528
 Sum of APT charges=   0.00000
 APT Atomic charges with hydrogens summed into heavy atoms:
              1
     1  C    0.085869
     2  C   -0.483957
     3  C    0.257125
     4  C    0.374172
     5  C   -0.248954
     6  C    0.206330
     7  H    0.000000
     8  H    0.000000
     9  H    0.000000
    10  H    0.000000
    11  H    0.000000
    12  H    0.000000
    13  H    0.000000
    14  H    0.000000
    15  O   -0.094914
    16  C   -0.108824
    17  H    0.000000
    18  H    0.000000
    19  C    0.196271
    20  N   -0.183119
    21  H    0.000000
    22  H    0.000000
    23  H    0.000000
 Sum of APT charges=   0.00000
 Electronic spatial extent (au):  <R**2>=           1282.5429
 Charge=              0.0000 electrons
 Dipole moment (field-independent basis, Debye):
    X=             -4.9004    Y=              3.3101    Z=              0.2338  Tot=              5.9182
 Quadrupole moment (field-independent basis, Debye-Ang):
   XX=            -67.1070   YY=            -66.4625   ZZ=            -58.6628
   XY=              8.2192   XZ=             -0.7300   YZ=              0.2493
 Traceless Quadrupole moment (field-independent basis, Debye-Ang):
   XX=             -3.0295   YY=             -2.3851   ZZ=              5.4146
   XY=              8.2192   XZ=             -0.7300   YZ=              0.2493
 Octapole moment (field-independent basis, Debye-Ang**2):
  XXX=            -28.8641  YYY=              9.4392  ZZZ=              1.7764  XYY=             -7.5329
  XXY=             10.8049  XXZ=             -4.6556  XZZ=              1.2768  YZZ=             -2.4853
  YYZ=              0.5319  XYZ=              0.8660
 Hexadecapole moment (field-independent basis, Debye-Ang**3):
 XXXX=           -822.3294 YYYY=           -629.6119 ZZZZ=           -359.1577 XXXY=             35.0880
 XXXZ=             -6.2860 YYYX=             14.2841 YYYZ=             -2.3116 ZZZX=              0.4105
 ZZZY=              3.5102 XXYY=           -237.0502 XXZZ=           -184.2971 YYZZ=           -158.4220
 XXYZ=              6.3604 YYXZ=              0.4414 ZZXY=              3.2454
 N-N= 5.659478752565D+02 E-N=-2.159143121493D+03  KE= 4.382846742128D+02
  Exact polarizability:   0.000   0.000   0.000   0.000   0.000   0.000
 Approx polarizability: 227.032  11.751 153.763  36.234  17.938 163.998
 Calling FoFJK, ICntrl=    100147 FMM=F ISym2X=0 I1Cent= 0 IOpClX= 0 NMat=1 NMatS=1 NMatT=0.
 ***** Axes restored to original set *****
 -------------------------------------------------------------------
 Center     Atomic                   Forces (Hartrees/Bohr)
 Number     Number              X              Y              Z
 -------------------------------------------------------------------
      1        6          -0.000006400    0.000011621   -0.000008852
      2        6           0.000011971    0.000002013   -0.000007814
      3        6           0.000008163   -0.000030246   -0.000010466
      4        6           0.000000116   -0.000013409    0.000007909
      5        6          -0.000007660   -0.000000594    0.000018228
      6        6          -0.000011018    0.000011377    0.000014454
      7        1          -0.000009868    0.000012167    0.000011857
      8        1          -0.000003379    0.000032226    0.000000411
      9        1           0.000003825   -0.000029761    0.000007249
     10        1          -0.000009352   -0.000007943    0.000028515
     11        1          -0.000005816   -0.000014086    0.000025278
     12        1          -0.000012105    0.000016785    0.000014171
     13        1          -0.000016131    0.000016940    0.000025288
     14        1           0.000007029   -0.000015490   -0.000007376
     15        8           0.000007848    0.000012312   -0.000021092
     16        6           0.000000368   -0.000017240    0.000014789
     17        1           0.000009069   -0.000019350   -0.000013984
     18        1           0.000003724   -0.000010513   -0.000000871
     19        6           0.000007415    0.000025468   -0.000019556
     20        7           0.000003619    0.000007918   -0.000026215
     21        1           0.000009318    0.000006901   -0.000022267
     22        1          -0.000004261    0.000015612   -0.000005125
     23        1           0.000013525   -0.000012707   -0.000024532
 -------------------------------------------------------------------
 Cartesian Forces:  Max     0.000032226 RMS     0.000014594

 GradGradGradGradGradGradGradGradGradGradGradGradGradGradGradGradGradGrad
 Berny optimization.
 Internal  Forces:  Max     0.000013287 RMS     0.000003816
 Search for a saddle point.
 Step number   1 out of a maximum of  138
 All quantities printed in internal units (Hartrees-Bohrs-Radians)
 Swaping is turned off.
 Second derivative matrix not updated -- analytic derivatives used.
     Eigenvalues ---   -0.23138   0.00294   0.00341   0.00605   0.00818
     Eigenvalues ---    0.01667   0.01823   0.02627   0.02828   0.03657
     Eigenvalues ---    0.03778   0.03889   0.03943   0.04122   0.04281
     Eigenvalues ---    0.04644   0.04697   0.05113   0.05350   0.05827
     Eigenvalues ---    0.05985   0.06392   0.06753   0.07220   0.07321
     Eigenvalues ---    0.07501   0.07969   0.08290   0.08460   0.09463
     Eigenvalues ---    0.10609   0.11612   0.13008   0.14591   0.15941
     Eigenvalues ---    0.16445   0.19381   0.19934   0.21840   0.22862
     Eigenvalues ---    0.24218   0.24971   0.25899   0.26233   0.27138
     Eigenvalues ---    0.28451   0.29965   0.31148   0.32121   0.32395
     Eigenvalues ---    0.32468   0.32682   0.33022   0.33225   0.33621
     Eigenvalues ---    0.33865   0.34188   0.34234   0.34419   0.37910
     Eigenvalues ---    0.38315   0.49424   0.809401000.000001000.00000
     Eigenvalues --- 1000.000001000.000001000.000001000.000001000.00000
     Eigenvalues --- 1000.000001000.000001000.000001000.000001000.00000
     Eigenvalues --- 1000.000001000.000001000.000001000.000001000.00000
     Eigenvalues --- 1000.000001000.000001000.000001000.000001000.00000
     Eigenvalues --- 1000.000001000.000001000.000001000.000001000.00000
     Eigenvalues --- 1000.000001000.000001000.000001000.000001000.00000
     Eigenvalues --- 1000.000001000.000001000.000001000.000001000.00000
     Eigenvalues --- 1000.000001000.000001000.000001000.000001000.00000
     Eigenvalues --- 1000.000001000.000001000.000001000.000001000.00000
     Eigenvalues --- 1000.000001000.000001000.000001000.000001000.00000
     Eigenvalues --- 1000.000001000.000001000.000001000.000001000.00000
     Eigenvalues --- 1000.000001000.000001000.000001000.000001000.00000
     Eigenvalues --- 1000.000001000.000001000.000001000.000001000.00000
     Eigenvalues --- 1000.000001000.000001000.000001000.00000
 Eigenvectors required to have negative eigenvalues:
                          A36       R5        A18       A39       R21
   1                    0.49602  -0.26029   0.23814  -0.21620  -0.21329
                          D37       D38       A35       D39       D4
   1                   -0.15594  -0.15109  -0.14912  -0.14758  -0.14717
 RFO step:  Lambda0=5.738701181D-12 Lambda=-2.05454366D-08.
 Linear search not attempted -- option 19 set.
 Iteration  1 RMS(Cart)=  0.00018303 RMS(Int)=  0.00000002
 Iteration  2 RMS(Cart)=  0.00000003 RMS(Int)=  0.00000000
 Variable       Old X    -DE/DX   Delta X   Delta X   Delta X     New X
                                 (Linear)    (Quad)   (Total)
    R1        2.89259   0.00000   0.00000  -0.00001  -0.00001   2.89258
    R2        2.90026   0.00001   0.00000  -0.00002  -0.00002   2.90024
    R3        2.07942   0.00000   0.00000   0.00001   0.00001   2.07943
    R4        2.06695   0.00000   0.00000   0.00000   0.00000   2.06695
    R5        3.01446   0.00000   0.00000   0.00004   0.00004   3.01449
    R6        2.31055   0.00000   0.00000  -0.00001  -0.00001   2.31054
    R7        2.88517   0.00001   0.00000   0.00002   0.00002   2.88519
    R8        2.07881   0.00000   0.00000   0.00000   0.00000   2.07881
    R9        2.06695  -0.00001   0.00000  -0.00002  -0.00002   2.06692
   R10        2.91945   0.00000   0.00000   0.00003   0.00003   2.91948
   R11        2.08163   0.00000   0.00000   0.00000   0.00000   2.08163
   R12        2.88168  -0.00001   0.00000  -0.00001  -0.00001   2.88167
   R13        2.90795   0.00001   0.00000   0.00001   0.00001   2.90796
   R14        2.07421   0.00000   0.00000   0.00000   0.00000   2.07421
   R15        2.07651   0.00000   0.00000   0.00000   0.00000   2.07651
   R16        2.06554   0.00000   0.00000  -0.00001  -0.00001   2.06553
   R17        2.07297   0.00000   0.00000   0.00000   0.00000   2.07297
   R18        2.06472   0.00000   0.00000   0.00000   0.00000   2.06472
   R19        2.06874   0.00000   0.00000   0.00000   0.00000   2.06874
   R20        3.04819   0.00001   0.00000   0.00002   0.00002   3.04821
   R21        2.60147   0.00000   0.00000   0.00002   0.00002   2.60149
   R22        2.08999   0.00000   0.00000   0.00000   0.00000   2.08999
   R23        2.08903   0.00000   0.00000  -0.00001  -0.00001   2.08902
    A1        2.03412   0.00000   0.00000  -0.00005  -0.00005   2.03407
    A2        1.81578   0.00000   0.00000  -0.00003  -0.00003   1.81576
    A3        1.88252   0.00000   0.00000   0.00005   0.00005   1.88257
    A4        1.91588   0.00000   0.00000  -0.00006  -0.00006   1.91582
    A5        1.95019   0.00000   0.00000   0.00007   0.00007   1.95027
    A6        1.85265   0.00000   0.00000   0.00001   0.00001   1.85266
    A7        2.00438   0.00000   0.00000  -0.00005  -0.00005   2.00433
    A8        2.10922   0.00000   0.00000   0.00005   0.00005   2.10926
    A9        2.03232   0.00000   0.00000  -0.00001  -0.00001   2.03230
   A10        2.02912   0.00000   0.00000   0.00005   0.00005   2.02917
   A11        1.72889   0.00000   0.00000  -0.00008  -0.00008   1.72881
   A12        1.92205   0.00000   0.00000   0.00002   0.00002   1.92207
   A13        1.93680  -0.00001   0.00000  -0.00005  -0.00005   1.93674
   A14        1.97158   0.00000   0.00000   0.00001   0.00001   1.97159
   A15        1.85317   0.00000   0.00000   0.00004   0.00004   1.85321
   A16        1.94181   0.00000   0.00000   0.00002   0.00002   1.94183
   A17        1.87735   0.00000   0.00000   0.00001   0.00001   1.87736
   A18        1.91273   0.00001   0.00000  -0.00003  -0.00003   1.91270
   A19        1.86820   0.00000   0.00000   0.00001   0.00001   1.86821
   A20        2.02194  -0.00001   0.00000  -0.00004  -0.00004   2.02190
   A21        1.83282   0.00000   0.00000   0.00003   0.00003   1.83285
   A22        2.00411   0.00000   0.00000  -0.00002  -0.00002   2.00409
   A23        1.91244   0.00000   0.00000  -0.00001  -0.00001   1.91244
   A24        1.87558   0.00000   0.00000   0.00001   0.00001   1.87559
   A25        1.91754   0.00000   0.00000   0.00002   0.00002   1.91756
   A26        1.89451   0.00000   0.00000  -0.00002  -0.00002   1.89450
   A27        1.85312   0.00000   0.00000   0.00001   0.00001   1.85313
   A28        1.97338   0.00000   0.00000  -0.00006  -0.00006   1.97332
   A29        1.91855   0.00000   0.00000   0.00001   0.00001   1.91855
   A30        1.89988   0.00000   0.00000   0.00001   0.00001   1.89990
   A31        1.92795   0.00000   0.00000   0.00001   0.00001   1.92796
   A32        1.89872   0.00000   0.00000   0.00002   0.00002   1.89874
   A33        1.84025   0.00000   0.00000   0.00001   0.00001   1.84026
   A34        1.91792   0.00000   0.00000   0.00006   0.00006   1.91798
   A35        1.97228   0.00000   0.00000   0.00000   0.00000   1.97228
   A36        1.97074  -0.00001   0.00000  -0.00009  -0.00009   1.97065
   A37        1.90175   0.00000   0.00000   0.00003   0.00003   1.90178
   A38        1.85946   0.00001   0.00000   0.00005   0.00005   1.85952
   A39        1.83631   0.00000   0.00000  -0.00005  -0.00005   1.83627
   A40        1.83095   0.00001   0.00000   0.00006   0.00006   1.83101
   A41        1.81636   0.00000   0.00000   0.00001   0.00001   1.81637
   A42        1.85578   0.00000   0.00000   0.00002   0.00002   1.85580
   A43        1.97218   0.00000   0.00000  -0.00009  -0.00009   1.97210
   A44        2.04075   0.00000   0.00000   0.00004   0.00004   2.04078
   A45        1.92662   0.00000   0.00000  -0.00002  -0.00002   1.92659
    D1       -0.62625   0.00001   0.00000  -0.00026  -0.00026  -0.62651
    D2        3.07374   0.00000   0.00000  -0.00022  -0.00022   3.07351
    D3        1.48518   0.00000   0.00000  -0.00038  -0.00038   1.48480
    D4       -1.09802   0.00000   0.00000  -0.00035  -0.00035  -1.09837
    D5       -2.83550   0.00000   0.00000  -0.00035  -0.00035  -2.83586
    D6        0.86449   0.00000   0.00000  -0.00032  -0.00032   0.86416
    D7        0.74935   0.00000   0.00000   0.00037   0.00037   0.74972
    D8       -1.41408   0.00000   0.00000   0.00039   0.00039  -1.41369
    D9        2.86156   0.00000   0.00000   0.00036   0.00036   2.86192
   D10       -1.30813   0.00000   0.00000   0.00048   0.00048  -1.30765
   D11        2.81163   0.00000   0.00000   0.00050   0.00050   2.81213
   D12        0.80408   0.00000   0.00000   0.00047   0.00047   0.80455
   D13        2.92457   0.00000   0.00000   0.00045   0.00045   2.92502
   D14        0.76114   0.00000   0.00000   0.00047   0.00047   0.76161
   D15       -1.24641   0.00000   0.00000   0.00045   0.00045  -1.24596
   D16        0.65620  -0.00001   0.00000  -0.00003  -0.00003   0.65617
   D17       -1.41840   0.00000   0.00000   0.00006   0.00006  -1.41834
   D18        2.92687   0.00000   0.00000   0.00005   0.00005   2.92692
   D19       -3.01827  -0.00001   0.00000  -0.00004  -0.00004  -3.01831
   D20        1.19031   0.00000   0.00000   0.00006   0.00006   1.19037
   D21       -0.74760   0.00000   0.00000   0.00004   0.00004  -0.74756
   D22       -0.78451   0.00000   0.00000   0.00020   0.00020  -0.78431
   D23       -2.82538   0.00000   0.00000   0.00016   0.00016  -2.82521
   D24        1.47434  -0.00001   0.00000   0.00014   0.00014   1.47448
   D25        1.17294   0.00000   0.00000   0.00009   0.00009   1.17303
   D26       -0.86793   0.00000   0.00000   0.00006   0.00006  -0.86787
   D27       -2.85139  -0.00001   0.00000   0.00003   0.00003  -2.85136
   D28       -3.03139   0.00000   0.00000   0.00011   0.00011  -3.03128
   D29        1.21093   0.00000   0.00000   0.00008   0.00008   1.21101
   D30       -0.77254  -0.00001   0.00000   0.00005   0.00005  -0.77248
   D31        0.91790   0.00000   0.00000  -0.00011  -0.00011   0.91778
   D32        3.08540   0.00000   0.00000  -0.00011  -0.00011   3.08529
   D33       -1.19153   0.00000   0.00000  -0.00009  -0.00009  -1.19162
   D34        2.96434   0.00000   0.00000  -0.00008  -0.00008   2.96425
   D35       -1.15135   0.00000   0.00000  -0.00007  -0.00007  -1.15142
   D36        0.85491   0.00000   0.00000  -0.00006  -0.00006   0.85485
   D37       -1.28181   0.00000   0.00000  -0.00006  -0.00006  -1.28187
   D38        0.88569   0.00000   0.00000  -0.00005  -0.00005   0.88564
   D39        2.89195   0.00000   0.00000  -0.00004  -0.00004   2.89191
   D40        1.10394   0.00000   0.00000  -0.00005  -0.00005   1.10390
   D41       -3.05103   0.00000   0.00000   0.00004   0.00004  -3.05100
   D42       -0.96933  -0.00001   0.00000  -0.00009  -0.00009  -0.96942
   D43       -2.96488   0.00000   0.00000  -0.00007  -0.00007  -2.96495
   D44       -0.83667   0.00000   0.00000   0.00001   0.00001  -0.83666
   D45        1.24504  -0.00001   0.00000  -0.00012  -0.00012   1.24492
   D46       -0.90813   0.00000   0.00000  -0.00006  -0.00006  -0.90819
   D47        1.22008   0.00000   0.00000   0.00002   0.00002   1.22010
   D48       -2.98140  -0.00001   0.00000  -0.00011  -0.00011  -2.98151
   D49       -0.90147   0.00000   0.00000  -0.00018  -0.00018  -0.90165
   D50        1.25679   0.00000   0.00000  -0.00020  -0.00020   1.25659
   D51       -3.01434   0.00000   0.00000  -0.00017  -0.00017  -3.01451
   D52       -3.06628   0.00000   0.00000  -0.00017  -0.00017  -3.06645
   D53       -0.90802   0.00000   0.00000  -0.00019  -0.00019  -0.90821
   D54        1.10404   0.00000   0.00000  -0.00016  -0.00016   1.10388
   D55        1.19753   0.00000   0.00000  -0.00018  -0.00018   1.19735
   D56       -2.92740   0.00000   0.00000  -0.00020  -0.00020  -2.92760
   D57       -0.91534   0.00000   0.00000  -0.00017  -0.00017  -0.91551
   D58        0.78655   0.00000   0.00000   0.00002   0.00002   0.78658
   D59        2.86202   0.00000   0.00000  -0.00005  -0.00005   2.86197
   D60       -1.38624   0.00000   0.00000  -0.00006  -0.00006  -1.38630
   D61       -1.32037   0.00000   0.00000  -0.00003  -0.00003  -1.32040
   D62        0.75509   0.00000   0.00000  -0.00010  -0.00010   0.75499
   D63        2.79002   0.00000   0.00000  -0.00011  -0.00011   2.78990
   D64        2.94527   0.00000   0.00000  -0.00007  -0.00007   2.94520
   D65       -1.26245   0.00000   0.00000  -0.00014  -0.00014  -1.26259
   D66        0.77247   0.00000   0.00000  -0.00015  -0.00015   0.77232
         Item               Value     Threshold  Converged?
 Maximum Force            0.000013     0.000450     YES
 RMS     Force            0.000004     0.000300     YES
 Maximum Displacement     0.000771     0.001800     YES
 RMS     Displacement     0.000183     0.001200     YES
 Predicted change in Energy=-1.026985D-08
 Optimization completed.
    -- Stationary point found.
                           ----------------------------
                           !   Optimized Parameters   !
                           ! (Angstroms and Degrees)  !
 --------------------------                            --------------------------
 ! Name  Definition              Value          Derivative Info.                !
 --------------------------------------------------------------------------------
 ! R1    R(1,2)                  1.5307         -DE/DX =    0.0                 !
 ! R2    R(1,6)                  1.5348         -DE/DX =    0.0                 !
 ! R3    R(1,7)                  1.1004         -DE/DX =    0.0                 !
 ! R4    R(1,8)                  1.0938         -DE/DX =    0.0                 !
 ! R5    R(2,3)                  1.5952         -DE/DX =    0.0                 !
 ! R6    R(2,15)                 1.2227         -DE/DX =    0.0                 !
 ! R7    R(3,4)                  1.5268         -DE/DX =    0.0                 !
 ! R8    R(3,14)                 1.1001         -DE/DX =    0.0                 !
 ! R9    R(3,23)                 1.0938         -DE/DX =    0.0                 !
 ! R10   R(4,5)                  1.5449         -DE/DX =    0.0                 !
 ! R11   R(4,9)                  1.1016         -DE/DX =    0.0                 !
 ! R12   R(4,16)                 1.5249         -DE/DX =    0.0                 !
 ! R13   R(5,6)                  1.5388         -DE/DX =    0.0                 !
 ! R14   R(5,10)                 1.0976         -DE/DX =    0.0                 !
 ! R15   R(5,11)                 1.0988         -DE/DX =    0.0                 !
 ! R16   R(6,12)                 1.093          -DE/DX =    0.0                 !
 ! R17   R(6,13)                 1.097          -DE/DX =    0.0                 !
 ! R18   R(16,17)                1.0926         -DE/DX =    0.0                 !
 ! R19   R(16,18)                1.0947         -DE/DX =    0.0                 !
 ! R20   R(16,19)                1.613          -DE/DX =    0.0                 !
 ! R21   R(19,20)                1.3766         -DE/DX =    0.0                 !
 ! R22   R(19,21)                1.106          -DE/DX =    0.0                 !
 ! R23   R(19,22)                1.1055         -DE/DX =    0.0                 !
 ! A1    A(2,1,6)              116.5463         -DE/DX =    0.0                 !
 ! A2    A(2,1,7)              104.0366         -DE/DX =    0.0                 !
 ! A3    A(2,1,8)              107.8604         -DE/DX =    0.0                 !
 ! A4    A(6,1,7)              109.7717         -DE/DX =    0.0                 !
 ! A5    A(6,1,8)              111.7379         -DE/DX =    0.0                 !
 ! A6    A(7,1,8)              106.1489         -DE/DX =    0.0                 !
 ! A7    A(1,2,3)              114.8423         -DE/DX =    0.0                 !
 ! A8    A(1,2,15)             120.8493         -DE/DX =    0.0                 !
 ! A9    A(3,2,15)             116.4431         -DE/DX =    0.0                 !
 ! A10   A(2,3,4)              116.26           -DE/DX =    0.0                 !
 ! A11   A(2,3,14)              99.0579         -DE/DX =    0.0                 !
 ! A12   A(2,3,23)             110.1256         -DE/DX =    0.0                 !
 ! A13   A(4,3,14)             110.9703         -DE/DX =    0.0                 !
 ! A14   A(4,3,23)             112.9631         -DE/DX =    0.0                 !
 ! A15   A(14,3,23)            106.1791         -DE/DX =    0.0                 !
 ! A16   A(3,4,5)              111.2575         -DE/DX =    0.0                 !
 ! A17   A(3,4,9)              107.5644         -DE/DX =    0.0                 !
 ! A18   A(3,4,16)             109.5914         -DE/DX =    0.0                 !
 ! A19   A(5,4,9)              107.0398         -DE/DX =    0.0                 !
 ! A20   A(5,4,16)             115.8488         -DE/DX =    0.0                 !
 ! A21   A(9,4,16)             105.0128         -DE/DX =    0.0                 !
 ! A22   A(4,5,6)              114.8271         -DE/DX =    0.0                 !
 ! A23   A(4,5,10)             109.575          -DE/DX =    0.0                 !
 ! A24   A(4,5,11)             107.4629         -DE/DX =    0.0                 !
 ! A25   A(6,5,10)             109.8669         -DE/DX =    0.0                 !
 ! A26   A(6,5,11)             108.5475         -DE/DX =    0.0                 !
 ! A27   A(10,5,11)            106.1761         -DE/DX =    0.0                 !
 ! A28   A(1,6,5)              113.0663         -DE/DX =    0.0                 !
 ! A29   A(1,6,12)             109.9247         -DE/DX =    0.0                 !
 ! A30   A(1,6,13)             108.8554         -DE/DX =    0.0                 !
 ! A31   A(5,6,12)             110.4636         -DE/DX =    0.0                 !
 ! A32   A(5,6,13)             108.7888         -DE/DX =    0.0                 !
 ! A33   A(12,6,13)            105.4386         -DE/DX =    0.0                 !
 ! A34   A(4,16,17)            109.8887         -DE/DX =    0.0                 !
 ! A35   A(4,16,18)            113.0034         -DE/DX =    0.0                 !
 ! A36   A(4,16,19)            112.915          -DE/DX =    0.0                 !
 ! A37   A(17,16,18)           108.962          -DE/DX =    0.0                 !
 ! A38   A(17,16,19)           106.5395         -DE/DX =    0.0                 !
 ! A39   A(18,16,19)           105.213          -DE/DX =    0.0                 !
 ! A40   A(16,19,20)           104.9058         -DE/DX =    0.0                 !
 ! A41   A(16,19,21)           104.0696         -DE/DX =    0.0                 !
 ! A42   A(16,19,22)           106.3285         -DE/DX =    0.0                 !
 ! A43   A(20,19,21)           112.9977         -DE/DX =    0.0                 !
 ! A44   A(20,19,22)           116.9263         -DE/DX =    0.0                 !
 ! A45   A(21,19,22)           110.3869         -DE/DX =    0.0                 !
 ! D1    D(6,1,2,3)            -35.8816         -DE/DX =    0.0                 !
 ! D2    D(6,1,2,15)           176.1121         -DE/DX =    0.0                 !
 ! D3    D(7,1,2,3)             85.0943         -DE/DX =    0.0                 !
 ! D4    D(7,1,2,15)           -62.912          -DE/DX =    0.0                 !
 ! D5    D(8,1,2,3)           -162.4623         -DE/DX =    0.0                 !
 ! D6    D(8,1,2,15)            49.5314         -DE/DX =    0.0                 !
 ! D7    D(2,1,6,5)             42.9345         -DE/DX =    0.0                 !
 ! D8    D(2,1,6,12)           -81.0207         -DE/DX =    0.0                 !
 ! D9    D(2,1,6,13)           163.9551         -DE/DX =    0.0                 !
 ! D10   D(7,1,6,5)            -74.9503         -DE/DX =    0.0                 !
 ! D11   D(7,1,6,12)           161.0945         -DE/DX =    0.0                 !
 ! D12   D(7,1,6,13)            46.0703         -DE/DX =    0.0                 !
 ! D13   D(8,1,6,5)            167.5653         -DE/DX =    0.0                 !
 ! D14   D(8,1,6,12)            43.6101         -DE/DX =    0.0                 !
 ! D15   D(8,1,6,13)           -71.4142         -DE/DX =    0.0                 !
 ! D16   D(1,2,3,4)             37.5974         -DE/DX =    0.0                 !
 ! D17   D(1,2,3,14)           -81.2684         -DE/DX =    0.0                 !
 ! D18   D(1,2,3,23)           167.6972         -DE/DX =    0.0                 !
 ! D19   D(15,2,3,4)          -172.9344         -DE/DX =    0.0                 !
 ! D20   D(15,2,3,14)           68.1998         -DE/DX =    0.0                 !
 ! D21   D(15,2,3,23)          -42.8345         -DE/DX =    0.0                 !
 ! D22   D(2,3,4,5)            -44.9492         -DE/DX =    0.0                 !
 ! D23   D(2,3,4,9)           -161.8821         -DE/DX =    0.0                 !
 ! D24   D(2,3,4,16)            84.4736         -DE/DX =    0.0                 !
 ! D25   D(14,3,4,5)            67.2045         -DE/DX =    0.0                 !
 ! D26   D(14,3,4,9)           -49.7284         -DE/DX =    0.0                 !
 ! D27   D(14,3,4,16)         -163.3727         -DE/DX =    0.0                 !
 ! D28   D(23,3,4,5)          -173.6859         -DE/DX =    0.0                 !
 ! D29   D(23,3,4,9)            69.3812         -DE/DX =    0.0                 !
 ! D30   D(23,3,4,16)          -44.2631         -DE/DX =    0.0                 !
 ! D31   D(3,4,5,6)             52.5916         -DE/DX =    0.0                 !
 ! D32   D(3,4,5,10)           176.7804         -DE/DX =    0.0                 !
 ! D33   D(3,4,5,11)           -68.2694         -DE/DX =    0.0                 !
 ! D34   D(9,4,5,6)            169.8439         -DE/DX =    0.0                 !
 ! D35   D(9,4,5,10)           -65.9672         -DE/DX =    0.0                 !
 ! D36   D(9,4,5,11)            48.9829         -DE/DX =    0.0                 !
 ! D37   D(16,4,5,6)           -73.4423         -DE/DX =    0.0                 !
 ! D38   D(16,4,5,10)           50.7465         -DE/DX =    0.0                 !
 ! D39   D(16,4,5,11)          165.6967         -DE/DX =    0.0                 !
 ! D40   D(3,4,16,17)           63.2514         -DE/DX =    0.0                 !
 ! D41   D(3,4,16,18)         -174.8113         -DE/DX =    0.0                 !
 ! D42   D(3,4,16,19)          -55.5385         -DE/DX =    0.0                 !
 ! D43   D(5,4,16,17)         -169.8749         -DE/DX =    0.0                 !
 ! D44   D(5,4,16,18)          -47.9375         -DE/DX =    0.0                 !
 ! D45   D(5,4,16,19)           71.3353         -DE/DX =    0.0                 !
 ! D46   D(9,4,16,17)          -52.0319         -DE/DX =    0.0                 !
 ! D47   D(9,4,16,18)           69.9055         -DE/DX =    0.0                 !
 ! D48   D(9,4,16,19)         -170.8217         -DE/DX =    0.0                 !
 ! D49   D(4,5,6,1)            -51.6507         -DE/DX =    0.0                 !
 ! D50   D(4,5,6,12)            72.0085         -DE/DX =    0.0                 !
 ! D51   D(4,5,6,13)          -172.7089         -DE/DX =    0.0                 !
 ! D52   D(10,5,6,1)          -175.685          -DE/DX =    0.0                 !
 ! D53   D(10,5,6,12)          -52.0258         -DE/DX =    0.0                 !
 ! D54   D(10,5,6,13)           63.2567         -DE/DX =    0.0                 !
 ! D55   D(11,5,6,1)            68.6134         -DE/DX =    0.0                 !
 ! D56   D(11,5,6,12)         -167.7274         -DE/DX =    0.0                 !
 ! D57   D(11,5,6,13)          -52.4449         -DE/DX =    0.0                 !
 ! D58   D(4,16,19,20)          45.0663         -DE/DX =    0.0                 !
 ! D59   D(4,16,19,21)         163.9814         -DE/DX =    0.0                 !
 ! D60   D(4,16,19,22)         -79.4257         -DE/DX =    0.0                 !
 ! D61   D(17,16,19,20)        -75.6519         -DE/DX =    0.0                 !
 ! D62   D(17,16,19,21)         43.2633         -DE/DX =    0.0                 !
 ! D63   D(17,16,19,22)        159.8561         -DE/DX =    0.0                 !
 ! D64   D(18,16,19,20)        168.7515         -DE/DX =    0.0                 !
 ! D65   D(18,16,19,21)        -72.3333         -DE/DX =    0.0                 !
 ! D66   D(18,16,19,22)         44.2595         -DE/DX =    0.0                 !
 --------------------------------------------------------------------------------
 GradGradGradGradGradGradGradGradGradGradGradGradGradGradGradGradGradGrad

                          Input orientation:                          
 ---------------------------------------------------------------------
 Center     Atomic      Atomic             Coordinates (Angstroms)
 Number     Number       Type             X           Y           Z
 ---------------------------------------------------------------------
      1          6           0        1.463859    0.930708   -0.636728
      2          6           0        1.360177   -0.386368    0.136302
      3          6           0        0.269341   -0.396256    1.300168
      4          6           0       -1.030094    0.352656    1.014480
      5          6           0       -0.753063    1.730524    0.373019
      6          6           0        0.153016    1.694013   -0.870223
      7          1           0        2.148155    1.542943   -0.030304
      8          1           0        1.987553    0.728397   -1.575439
      9          1           0       -1.525095    0.540003    1.980551
     10          1           0       -1.704412    2.219601    0.127006
     11          1           0       -0.274014    2.359284    1.136318
     12          1           0       -0.382169    1.263744   -1.720623
     13          1           0        0.390039    2.723695   -1.165029
     14          1           0        0.850136    0.108718    2.086174
     15          8           0        2.343494   -1.093037    0.305662
     16          6           0       -1.986693   -0.556283    0.250197
     17          1           0       -2.253394   -1.417812    0.866979
     18          1           0       -2.903038   -0.045960   -0.063361
     19          6           0       -1.344193   -1.144692   -1.107316
     20          7           0       -0.079060   -1.554632   -0.751618
     21          1           0       -2.010525   -1.984886   -1.377977
     22          1           0       -1.415986   -0.338334   -1.860103
     23          1           0        0.104120   -1.418488    1.652448
 ---------------------------------------------------------------------
                    Distance matrix (angstroms):
                    1          2          3          4          5
     1  C    0.000000
     2  C    1.530691   0.000000
     3  C    2.634250   1.595182   0.000000
     4  C    3.046380   2.651556   1.526767   0.000000
     5  C    2.563989   3.000508   2.535371   1.544907   0.000000
     6  C    1.534752   2.607358   3.015519   2.598287   1.538819
     7  H    1.100383   2.090672   3.010081   3.551003   2.935119
     8  H    1.093784   2.136904   3.533584   3.994378   3.508807
     9  H    3.992073   3.547423   2.135299   1.101553   2.144186
    10  H    3.504636   4.022793   3.480620   2.174350   1.097626
    11  H    2.864389   3.348017   2.813376   2.147803   1.098841
    12  H    2.166463   3.034273   3.507883   2.954772   2.176875
    13  H    2.155689   3.508151   3.978173   3.519782   2.158393
    14  H    2.909728   2.075392   1.100058   2.177912   2.852263
    15  O    2.399458   1.222692   2.403468   3.738121   4.191145
    16  C    3.860581   3.353115   2.493539   1.524920   2.601233
    17  H    4.647004   3.828271   2.755979   2.157030   3.522358
    18  H    4.511366   4.281442   3.470721   2.197397   2.822891
    19  C    3.523336   3.071687   2.993264   2.615861   3.287506
    20  N    2.927578   2.055394   2.381815   2.767908   3.537137
    21  H    4.595811   4.026156   3.859274   3.485570   4.295517
    22  H    3.376481   3.419798   3.582038   2.981544   3.115521
    23  H    3.550766   2.222982   1.093781   2.197816   3.505421
                    6          7          8          9         10
     6  C    0.000000
     7  H    2.169992   0.000000
     8  H    2.189810   1.754058   0.000000
     9  H    3.503528   4.306065   5.001925   0.000000
    10  H    2.172728   3.914701   4.330429   2.507755   0.000000
    11  H    2.156652   2.809684   3.889486   2.363835   1.756206
    12  H    1.093039   3.055760   2.433774   3.940656   2.464898
    13  H    1.096966   2.402654   2.588764   4.281463   2.512009
    14  H    3.426284   2.867287   3.883958   2.416379   3.849660
    15  O    3.734775   2.664474   2.642510   4.520847   5.233644
    16  C    3.301140   4.645686   4.558287   2.099772   2.792918
    17  H    4.300248   5.380039   5.343898   2.367172   3.752295
    18  H    3.608046   5.295305   5.177247   2.533704   2.570158
    19  C    3.218089   4.536500   3.850731   3.522193   3.601635
    20  N    3.259083   3.882750   3.187757   3.734068   4.202212
    21  H    4.298025   5.617510   4.835858   4.229706   4.476203
    22  H    2.751738   4.426112   3.578132   3.941320   3.251895
    23  H    4.006735   3.972381   4.309952   2.568595   4.339753
                   11         12         13         14         15
    11  H    0.000000
    12  H    3.061702   0.000000
    13  H    2.422800   1.742540   0.000000
    14  H    2.689049   4.164657   4.197632   0.000000
    15  O    4.411333   4.133943   4.532809   2.616210   0.000000
    16  C    3.495570   3.125880   4.290685   3.443928   4.363680
    17  H    4.272814   4.169881   5.316848   3.667237   4.642406
    18  H    3.759813   3.288863   4.441736   4.327903   5.362709
    19  C    4.296164   2.664995   4.239730   4.072407   3.949457
    20  N    4.349833   2.995678   4.323777   3.418070   2.683222
    21  H    5.311211   3.650006   5.289498   4.956501   4.752633
    22  H    4.190439   1.911776   3.622275   4.572556   4.403840
    23  H    3.831571   4.336871   5.017729   1.754143   2.633353
[...]
 0072,-0.00010218,0.12795116,-0.00026570,-0.00031052,-0.00001279,-0.002
 72211,0.00124580,-0.00046925,-0.06023697,-0.09780163,-0.08529429,0.007
 47234,0.00746045,0.01174437,-0.00003955,0.00074931,0.00037214,0.000173
 42,0.00001468,-0.00003623,-0.00008155,-0.00002157,0.00013944,0.0000867
 6,0.00010609,-0.00012510,-0.00033761,0.00045239,-0.00001672,-0.0000591
 0,0.00017350,-0.00026315,-0.00017474,-0.00018107,-0.00005914,0.0000770
 0,0.00004603,-0.00005384,-0.00005696,0.00000190,0.00001727,0.06643992,
 0.10516376,0.00003792,0.00136734,0.00235519,-0.00009948,-0.01572810,-0
 .03002468,-0.10892420,-0.08886809,-0.16821676,-0.00047625,-0.00273005,
 -0.00323748,0.00008735,-0.00039031,-0.00012278,-0.00033834,0.00022672,
 -0.00037696,0.00053980,0.00100260,-0.00040192,0.00005190,-0.00049471,0
 .00064321,0.00012225,0.00023324,0.00070957,0.00017385,0.00003488,0.000
 18426,0.00013365,0.00068568,0.00003018,0.00014386,-0.00017830,0.000304
 06,0.00013216,-0.00003325,0.00003824,0.10479737,0.09304563,0.18625380,
 -0.00188630,0.01763951,-0.00838910,-0.43337053,0.29366154,-0.05673446,
 -0.05590827,0.01794276,0.00658446,-0.00309221,-0.00207262,0.00812754,0
 .00087551,-0.00134296,0.00055837,0.00132560,0.00052491,-0.00031620,0.0
 0056006,0.00108969,0.00099018,0.00015942,-0.00081001,-0.00117473,-0.00
 257289,0.00143844,0.00005711,0.00012913,0.00013111,-0.00035162,0.00014
 218,0.00039083,0.00012863,0.00030686,-0.00057451,0.00045760,-0.0003186
 4,0.00054770,-0.00015388,0.00269707,0.00130842,-0.00340179,0.52017631,
 0.03837324,-0.03119604,0.01436767,0.26679973,-0.29236947,0.05968969,0.
 02664547,0.00699035,-0.01061736,0.00001012,0.00294345,0.00008504,-0.00
 119807,0.00030221,0.00050007,-0.00405520,-0.00434976,0.00446140,0.0019
 2300,0.00245089,-0.00073574,0.00117008,0.00159135,-0.00007156,0.000385
 85,-0.00010503,-0.00035985,0.00038922,0.00019148,-0.00031020,-0.000083
 66,-0.00005139,-0.00018880,0.00091514,-0.00022184,0.00028536,0.0021883
 4,-0.00175111,0.00047967,-0.00164303,-0.00067314,0.00424635,-0.3288110
 7,0.31036838,-0.01985527,0.01820793,0.00478236,-0.04548183,0.06337763,
 -0.07195485,0.02418928,-0.01522273,0.00076899,0.00357540,0.00269323,-0
 .00097127,0.00058846,0.00018545,-0.00092426,0.00255890,0.00470421,-0.0
 0027543,-0.00016591,0.00188659,0.00006763,-0.00129489,-0.00294170,0.00
 241165,0.00040251,0.00002210,-0.00034992,-0.00044999,-0.00028177,0.000
 44770,-0.00006535,-0.00001168,0.00012376,-0.00019816,-0.00016947,-0.00
 014149,-0.00172938,0.00114374,-0.00038465,0.00118854,0.00055530,0.0030
 6463,0.06435863,-0.06596479,0.07027640,-0.00015907,0.00020790,0.001410
 54,0.00121115,-0.00112843,-0.00732124,-0.03581580,-0.01708794,-0.02589
 441,-0.11918553,-0.04248322,-0.03698790,-0.00455597,-0.00631529,-0.001
 41013,-0.00021406,-0.00005803,-0.00075728,0.00027686,0.00058751,-0.000
 06178,-0.00019714,-0.00040795,0.00022301,0.00555311,0.00622475,0.00704
 331,0.00068706,0.00183062,0.00006534,0.00016267,0.00037650,0.00005513,
 0.00027832,-0.00038061,0.00033421,0.00015184,0.00015354,0.00009829,-0.
 00456162,0.00245906,-0.00199608,0.00040667,-0.00015185,0.00117215,0.51
 312353,0.00051357,-0.00020984,0.00029730,0.00885668,0.00269596,0.00522
 316,0.00436285,0.00712181,0.00317782,-0.04629041,-0.11723646,-0.025057
 55,-0.01855843,-0.02189584,-0.01598077,-0.00007483,0.00161050,-0.00094
 256,0.00000140,-0.00008359,-0.00008885,0.00013189,-0.00000595,0.000047
 15,-0.00465721,-0.00473774,-0.00512887,-0.00038339,0.00120805,-0.00086
 292,-0.00136326,-0.00410034,0.00260491,-0.00003461,0.00041798,0.000892
 28,0.00049299,0.00012759,-0.00012948,0.00532133,-0.00040177,-0.0007052
 2,-0.00099413,0.00026925,-0.00220939,-0.00559577,0.52133735,-0.0003874
 0,0.00090866,-0.00047892,0.01192526,0.00196355,0.00001019,-0.01887930,
 -0.01008692,-0.01504523,-0.04164160,-0.02276798,-0.09559070,0.01091789
 ,0.00485983,0.01135036,-0.00105064,0.00113367,0.00220197,-0.00020624,-
 0.00056859,0.00023832,0.00033810,-0.00029614,0.00004674,-0.01557913,-0
 .01557430,-0.01836394,0.00052057,-0.00053128,0.00045724,0.00144741,0.0
 0504867,-0.00039560,-0.00019171,-0.00031676,-0.00069273,0.00058338,-0.
 00045291,-0.00108283,0.00145499,0.00045147,-0.00220188,-0.00329095,0.0
 0064109,-0.00143301,0.05506319,-0.11592001,0.39630479,0.00009026,0.000
 00813,0.00000628,-0.00013522,-0.00020528,-0.00017235,0.00047456,-0.001
 31857,0.00118047,-0.00543246,-0.01631864,0.01181961,-0.00198175,-0.001
 11587,-0.00329577,0.00016021,0.00026979,-0.00017821,0.00000397,-0.0000
 2117,0.00000917,-0.00001480,0.00004161,-0.00000942,0.00101444,0.000511
 38,-0.00003013,0.00027344,-0.00016932,0.00006388,-0.00000413,-0.001124
 29,0.00041485,-0.00007343,0.00006502,0.00005726,-0.00001826,-0.0000070
 4,0.00000677,0.00039941,0.00025312,-0.00020387,-0.00013380,0.00011828,
 -0.00003712,-0.06501446,-0.05087726,0.03193888,0.06619034,0.00014752,-
 0.00008882,-0.00002606,-0.00058165,0.00004731,0.00061172,0.00141844,0.
 00054766,-0.00063427,-0.00445855,-0.01694353,0.01072192,-0.00245838,-0
 .00034805,-0.00365437,0.00017811,-0.00013416,-0.00026027,0.00001724,0.
 00002338,-0.00001385,-0.00007552,0.00007966,-0.00003806,0.00027689,0.0
 0012855,-0.00018333,0.00003197,0.00048938,-0.00007382,-0.00058049,-0.0
 0119938,0.00050517,0.00000260,-0.00000935,0.00004324,-0.00010489,0.000
 04206,0.00015391,0.00002482,0.00007047,-0.00008068,0.00027553,-0.00005
 011,-0.00010584,-0.05183076,-0.21701186,0.12596714,0.05601385,0.235156
 56,-0.00005214,-0.00008317,-0.00011882,-0.00127459,-0.00030474,0.00110
 486,0.00129880,-0.00008725,0.00013051,-0.00567113,-0.01558780,0.008724
 27,-0.00270981,-0.00074585,-0.00139978,-0.00003525,-0.00058204,-0.0001
 0697,0.00001589,-0.00000501,0.00002023,-0.00004641,0.00006059,-0.00003
 950,0.00009148,-0.00007232,0.00121347,0.00007437,0.00013857,-0.0001135
 8,-0.00022866,-0.00094967,0.00026409,-0.00006162,-0.00005941,0.0000951
 1,-0.00011593,0.00009014,0.00021733,-0.00020033,-0.00010267,0.00034892
 ,0.00063089,-0.00019298,-0.00022990,0.03352223,0.12673774,-0.12820526,
 -0.03646223,-0.12737876,0.14679333,-0.00010551,0.00040594,0.00004120,0
 .00137556,-0.00056902,-0.00127839,-0.00350605,-0.00399180,-0.00433321,
 -0.01405852,0.01038755,-0.00323162,0.00050787,0.00177618,0.00037548,-0
 .00014873,-0.00039833,0.00007514,0.00005351,-0.00001728,0.00003797,0.0
 0001296,-0.00013097,0.00007695,0.00013442,-0.00020566,-0.00036197,0.00
 033979,-0.00111247,0.00026540,0.00046561,0.00005815,0.00001734,-0.0000
 5402,0.00002753,0.00012744,0.00002330,-0.00001831,0.00006106,-0.001131
 59,0.00085027,-0.00054504,-0.00028242,0.00011170,0.00009216,-0.2323186
 2,0.10253838,-0.06906506,0.00791049,-0.00410468,0.00235962,0.24850678,
 -0.00030450,-0.00011052,-0.00029526,-0.00146715,-0.00055893,0.00091802
 ,-0.00066236,-0.00156449,-0.00185063,-0.01654475,0.01070702,-0.0043161
 4,-0.00072909,0.00155104,-0.00004357,0.00018572,0.00006405,0.00003977,
 -0.00002137,-0.00004795,0.00003284,0.00002932,0.00002359,-0.00002926,0
 .00052271,0.00022362,0.00019584,0.00034780,-0.00009265,0.00002900,0.00
 017692,0.00019594,-0.00006150,0.00002053,0.00001948,0.00000675,-0.0000
 3372,0.00001806,0.00001912,-0.00141635,0.00058364,0.00013393,0.0005428
 1,-0.00004895,0.00007636,0.10429815,-0.10902034,0.04051926,0.02050197,
 -0.01005319,0.00621457,-0.11283131,0.11347034,0.00003344,-0.00050445,-
 0.00015479,-0.00243325,0.00031986,0.00151810,0.00263721,-0.00098588,0.
 00035031,-0.01270660,0.00963647,-0.00336197,0.00063632,0.00042962,0.00
 024647,0.00024001,0.00019242,-0.00003057,-0.00002271,0.00005472,-0.000
 03286,0.00002176,0.00010217,-0.00004384,0.00023011,0.00013932,0.000028
 42,0.00004444,-0.00025234,0.00029825,0.00007316,-0.00007346,-0.0001309
 6,-0.00002988,-0.00000198,-0.00003646,-0.00012340,0.00003613,0.0000193
 0,-0.00162703,0.00021222,0.00097692,0.00073031,-0.00015426,0.00032507,
 -0.06430838,0.03919447,-0.06148370,-0.01540036,0.00745507,-0.00397973,
 0.07164497,-0.03930494,0.07441641,-0.00127092,0.00090954,-0.00026301,-
 0.00411242,0.00054055,-0.00502424,-0.00321406,-0.00630418,-0.00668948,
 -0.00455248,0.00084737,-0.00058917,0.00061561,-0.00154510,-0.00007725,
 -0.00016789,-0.00067287,0.00199774,-0.00044238,-0.00015078,0.00007328,
 0.00012265,-0.00001854,0.00013032,0.00291487,0.00198741,-0.00166960,0.
 00029630,-0.00029446,0.00015937,0.00046878,0.00058228,-0.00003562,-0.0
 0050759,-0.00132396,-0.00088156,0.00029414,-0.00018953,-0.00081352,0.0
 0261827,-0.00150781,-0.00030961,-0.00182664,-0.00182886,-0.00143247,-0
 .04657710,-0.00448042,-0.02901506,-0.00640308,0.00528800,0.01016989,-0
 .01279445,0.00988253,0.02992010,0.44841930,-0.00393898,-0.00130913,-0.
 00594857,-0.01042416,0.00291915,0.03210700,0.02185885,0.01208696,0.004
 60786,0.00820240,-0.01011147,-0.02187378,-0.00022330,0.00081293,-0.001
 09972,0.00067058,-0.00341380,0.00305693,-0.00026131,-0.00204998,0.0008
 4463,0.00029994,0.00111640,-0.00087415,-0.00388272,-0.00229399,-0.0018
 6592,0.00006865,0.00041894,-0.00022580,-0.00019488,-0.00058325,0.00059
 068,-0.00317567,-0.00396187,-0.00136083,-0.00045738,0.00003095,-0.0004
 5596,-0.00340888,-0.00162157,0.00628346,-0.00396230,0.00059877,-0.0079
 8805,0.01200271,-0.03378462,0.01548493,-0.00517056,0.00449332,0.010317
 63,0.00881054,-0.00760401,-0.01779875,0.05473894,0.46498402,0.00170665
 ,-0.00181962,-0.00092203,-0.01127280,-0.00035313,0.01230230,0.01427424
 ,0.00788736,0.00388988,0.00589486,-0.00897856,-0.01653305,-0.00108833,
 0.00018008,0.00042296,-0.00023400,-0.00066129,0.00144445,-0.00065893,0
 .00057231,-0.00052701,0.00020143,0.00065039,-0.00016254,-0.00414789,-0
 .00179628,-0.00042851,-0.00039355,0.00071169,0.00005010,-0.00013647,-0
 .00047166,-0.00026848,0.00056395,0.00100961,-0.00105443,-0.00075776,-0
 .00013348,-0.00026552,-0.00226115,0.00165179,0.00339906,0.00519955,-0.
 00088297,-0.00132995,0.03444183,-0.00997459,-0.05656964,0.00903488,-0.
 00898772,-0.02038099,0.00089185,0.00002751,-0.00867777,0.11438587,-0.0
 9991486,0.35058054,-0.00237233,-0.01101473,-0.00915596,0.01209222,0.02
 177794,0.06583603,0.02495556,0.00977802,-0.00825549,0.00625289,0.00093
 341,0.00101612,-0.00032592,0.00003981,-0.00088361,0.00017984,-0.000104
 34,0.00021513,0.00004373,-0.00155056,0.00075259,0.00069823,0.00170559,
 -0.00140721,-0.00440039,-0.00116052,-0.00242411,-0.00031911,0.00050207
 ,-0.00030032,-0.00044304,-0.00080253,0.00025267,-0.00085319,-0.0004726
 8,-0.00042497,-0.00051250,0.00006063,-0.00003955,-0.00525818,0.0022042
 0,0.00447355,-0.02367699,-0.00462645,-0.02483106,-0.01970828,0.0093295
 6,0.04314172,0.00263890,-0.00061397,-0.00360279,0.00359572,-0.00167232
 ,-0.00869570,-0.22353209,0.04519605,-0.11419587,0.28963144,-0.00451753
 ,-0.00796657,-0.00680982,0.01817946,-0.00987309,0.01249675,-0.00043645
 ,-0.00750245,-0.01238716,0.00266836,-0.00127694,-0.00418322,0.00000863
 ,-0.00001591,0.00082356,-0.00109919,0.00276451,-0.00138013,-0.00060429
 ,-0.00149225,0.00095683,0.00016779,0.00022788,-0.00020116,0.00051542,-
 0.00071587,0.00012584,0.00017648,-0.00008048,0.00000435,-0.00000509,0.
 00039294,-0.00006799,0.00089080,0.00029127,0.00058841,-0.00004285,0.00
 002948,0.00007402,0.00035907,-0.00057194,-0.00217878,0.00260185,0.0058
 2287,0.00106508,0.00489532,-0.01790434,-0.01464494,-0.00175992,0.00175
 382,0.00305713,-0.00052091,0.00132374,0.00077199,0.05874717,-0.0665537
 2,0.03794194,-0.09374448,0.09772462,0.00157876,-0.00310188,-0.00132903
 ,0.01074948,0.01693688,0.01644236,0.01127445,-0.00402092,-0.01275956,0
 .00583315,-0.00400471,-0.00828994,-0.00066864,0.00061766,0.00029733,0.
 00147008,-0.00057418,-0.00010123,0.00035482,0.00096579,0.00050806,-0.0
 0006737,0.00066004,0.00000546,-0.00110237,-0.00222003,0.00029356,-0.00
 001131,0.00013884,0.00008576,-0.00007438,-0.00015827,0.00005260,-0.000
 51102,-0.00046428,-0.00036502,-0.00070812,0.00003036,0.00002794,-0.003
 51976,-0.00089249,-0.00037596,-0.00916431,-0.00341114,-0.00649517,0.01
 019291,0.00201256,0.00339795,0.00154731,-0.00183258,-0.00151522,0.0025
 6663,-0.00294190,-0.00191850,-0.06393554,0.00717982,-0.06207697,0.0736
 6038,-0.01837773,0.07902680,-0.00119887,-0.00044135,-0.00197865,0.0042
 2256,0.00171704,0.00977258,0.00194641,0.00156490,0.00002008,-0.0002353
 9,0.00046933,0.00102424,-0.00004535,-0.00014160,0.00021650,0.00008689,
 0.00004734,0.00003148,-0.00025135,-0.00067418,0.00025077,0.00014455,0.
 00024711,-0.00011067,0.00001352,0.00014903,0.00035974,0.00002796,0.000
 05471,-0.00005816,-0.00003105,0.00007506,-0.00008287,0.00012151,0.0001
 0332,-0.00001994,0.00011745,-0.00003362,-0.00001297,-0.00028109,-0.000
 17142,0.00063674,-0.00300609,0.00117298,-0.00259035,0.00735738,0.00981
 987,0.00908864,0.00065186,0.00032255,-0.00058608,0.00057329,-0.0006299
 2,-0.00095640,-0.10697066,-0.11575087,-0.03920040,-0.04417077,-0.01236
 115,-0.01758973,0.13874309,0.00058586,-0.00019278,0.00062971,0.0017950
 4,0.00114916,-0.00164986,-0.00099735,-0.00078663,-0.00060987,0.0023063
 5,0.00048933,-0.00127698,0.00017991,0.00015330,0.00035691,0.00027642,0
 .00000503,0.00098803,-0.00006717,0.00036809,-0.00015612,-0.00004251,-0
 .00006147,0.00005806,-0.00042258,-0.00042657,-0.00058559,0.00000039,-0
 .00001548,0.00007820,0.00003922,0.00004206,-0.00012376,-0.00040812,-0.
 00025900,-0.00080026,-0.00025665,-0.00017519,-0.00034910,0.00010935,0.
 00023434,-0.00058930,0.00044993,-0.00020801,0.00047661,-0.00871889,-0.
 01130630,-0.00566125,-0.00038458,0.00198155,0.00102059,-0.00029895,-0.
 00008362,0.00113311,-0.09855204,-0.18971957,-0.02921830,0.00005030,0.0
 1358525,0.00036899,0.11634534,0.20273529,-0.00113977,0.00059191,-0.001
 14878,-0.00266933,-0.00245109,0.00193109,0.00177002,0.00104775,0.00123
 211,0.00122060,-0.00132524,-0.00281584,0.00018998,0.00006618,-0.000325
 56,-0.00021056,-0.00000255,-0.00033470,0.00004311,-0.00063535,0.000258
 78,0.00008820,0.00011200,-0.00010251,-0.00003047,-0.00035105,-0.000545
 48,0.00008598,-0.00010517,-0.00002945,-0.00002309,-0.00005152,0.000192
 70,0.00005869,0.00003432,0.00064165,0.00032942,0.00013762,0.00026092,0
 .00008463,-0.00058711,0.00085732,-0.00023134,0.00033900,-0.00040866,-0
 .00845221,-0.01600672,-0.01305153,-0.00110029,-0.00040270,0.00014394,0
 .00000470,0.00016575,0.00071292,-0.04292311,-0.03778530,-0.05533854,0.
 00003421,-0.00213524,-0.00167056,0.04028593,0.04227162,0.06228623,0.00
 042205,0.00027549,0.00064534,0.00466122,0.00196668,-0.00283143,-0.0033
 7369,-0.00147060,0.00053365,0.00057369,0.00001470,-0.00164254,0.000670
 40,0.00038203,0.00018016,-0.00137637,-0.00086851,-0.00157387,0.0001434
 2,0.00009114,0.00003270,-0.00023055,-0.00024839,0.00018982,-0.00012704
 ,-0.00024525,0.00008304,-0.00004324,-0.00006526,0.00005682,-0.00014725
 ,0.00010592,0.00016783,-0.00012713,-0.00197136,0.00043257,0.00030097,0
 .00017446,0.00049239,0.00053552,0.00066424,-0.00098546,-0.00114675,0.0
 0007568,0.00075776,-0.00215204,-0.01020837,0.01346043,-0.00004977,0.00
 138017,0.00277794,0.00058664,-0.00021670,-0.00030716,-0.04271878,-0.00
 118461,-0.01325815,-0.01601553,0.02740234,-0.02163386,0.00207125,-0.01
 197144,0.01276371,0.05744240,0.00049332,-0.00027713,0.00107922,0.00149
 844,0.00085565,-0.00461734,-0.00242405,-0.00183406,-0.00031227,-0.0002
 4337,0.00102546,0.00044778,0.00006867,0.00004297,0.00044340,-0.0020499
 7,-0.00146970,-0.00120294,-0.00016178,0.00055898,-0.00026211,0.0000002
 8,-0.00014164,0.00021723,0.00027151,0.00019544,0.00018460,0.00001935,0
 .00000171,0.00008113,0.00003287,0.00010162,-0.00002257,-0.00152535,-0.
 00189192,-0.00083903,-0.00008866,-0.00011469,0.00008321,0.00043004,0.0
 0019303,-0.00083914,-0.00005791,-0.00008731,0.00088308,0.00282020,0.00
 143388,-0.00943034,0.00022065,0.00063928,-0.00153530,-0.00074466,0.000
 99747,-0.00043986,-0.01602638,-0.16281717,0.11129114,0.02378897,-0.009
 40441,0.01539664,-0.00172091,-0.01775934,0.01753529,-0.00469109,0.1894
 3053,0.00037734,0.00052845,0.00097864,0.00703183,0.00283493,-0.0029843
 5,-0.00468570,-0.00292720,-0.00040408,-0.00076376,0.00094526,0.0009013
 1,0.00012950,-0.00000093,-0.00038264,-0.00049117,0.00009957,-0.0012048
 9,0.00042847,-0.00003701,-0.00001389,-0.00003813,-0.00028815,0.0000489
 2,0.00045412,-0.00000655,0.00029583,0.00011130,-0.00033556,-0.00008174
 ,-0.00000436,0.00013706,0.00028663,0.00000201,-0.00049823,0.00183956,0
 .00049715,0.00023593,0.00053183,0.00086868,0.00059840,-0.00150120,-0.0
 0225742,0.00031328,0.00041260,0.00300788,0.01224964,-0.02123455,0.0012
 8648,-0.00178256,-0.00304640,-0.00015010,0.00078523,0.00126400,-0.0049
 3736,0.11709194,-0.14468487,-0.01226922,0.00385325,0.00054154,0.001472
 44,-0.00630598,0.00680255,0.00972351,-0.12797751,0.16158609,-0.0023685
 3,0.00138608,0.00286681,-0.00159884,-0.01855645,0.00255042,-0.05626213
 ,-0.04066463,0.01467667,0.00483845,0.02659683,-0.01140570,-0.00593340,
 0.00117899,-0.00084565,-0.00018278,0.00034283,0.00001634,0.00011530,0.
 00026890,-0.00026543,-0.00001120,-0.00096252,0.00066627,0.00118885,-0.
 00080262,0.00057846,0.00042701,0.00178980,-0.00082373,0.00003221,-0.00
 001057,0.00019645,0.00008873,-0.00002521,-0.00005149,0.00013763,-0.000
 08177,-0.00008724,-0.00284669,-0.01633525,0.00594971,0.00044273,0.0021
 1938,-0.00075201,0.00125109,0.00214959,-0.00057334,-0.00054671,-0.0005
 6879,0.00010588,0.00031399,0.00002107,0.00039903,-0.00065940,0.0001869
 5,0.00101021,0.00149980,-0.00152081,-0.00024156,0.00011290,-0.00001782
 ,-0.00017903,0.00010059,0.00008984,0.00020654,0.05986040,0.00026363,0.
 00006387,-0.00105148,-0.00205702,0.00383370,0.00230062,-0.03793963,-0.
 28107152,0.07963769,-0.00297529,-0.01169520,0.00407726,0.00316617,0.00
 015836,-0.00052011,0.00008300,0.00024737,-0.00016454,-0.00000282,-0.00
 009116,-0.00006161,0.00010893,0.00032069,-0.00022962,0.00011447,-0.000
 11560,-0.00048178,-0.00016650,-0.00063323,0.00052909,-0.00006713,0.000
 23685,-0.00012829,-0.00006733,0.00004011,0.00000174,-0.00006680,-0.000
 00652,-0.00000606,-0.00285198,-0.01491217,0.00555610,0.00008047,-0.000
 41685,-0.00038188,-0.00169753,0.00147660,-0.00072686,0.00046870,0.0003
 8544,0.00005003,-0.00002187,0.00000666,-0.00016166,-0.00062888,-0.0016
 3728,0.00126865,0.00039606,-0.00055841,-0.00230746,-0.00016354,0.00025
 058,-0.00046241,0.00060872,0.00032136,0.00048676,0.04341617,0.30379636
 ,0.00304471,-0.00181856,-0.00321351,0.00278139,0.02459507,-0.00940192,
 0.01592274,0.08234451,-0.06640748,0.00085632,0.00402364,-0.00250980,-0
 .00103787,-0.00000315,0.00063512,0.00025521,-0.00051965,0.00038514,0.0
 0009894,0.00008247,0.00007517,0.00036131,0.00128922,-0.00063967,-0.000
 43388,-0.00028013,0.00019107,0.00000818,0.00029197,0.00011689,0.000082
 29,0.00029871,0.00003942,-0.00007390,0.00005208,-0.00010516,-0.0000939
 5,0.00000229,0.00001443,-0.00465265,-0.02087523,0.00729429,-0.00235745
 ,-0.00251896,0.00221776,0.00055940,0.00056988,0.00182196,-0.00047610,-
 0.00000327,0.00008009,0.00032750,-0.00032075,-0.00030502,0.00176003,-0
 .00037321,-0.00286899,-0.00289654,0.00060703,-0.00378221,0.00002709,-0
 .00005548,0.00045139,-0.00006520,-0.00016430,0.00004911,-0.01399759,-0
 .08722417,0.07586192\\0.00000639,-0.00001160,0.00000884,-0.00001168,-0
 .00000211,0.00000790,-0.00000820,0.00003025,0.00001047,-0.00000013,0.0
 0001340,-0.00000790,0.00000767,0.00000058,-0.00001821,0.00001103,-0.00
 001136,-0.00001445,0.00000985,-0.00001218,-0.00001187,0.00000337,-0.00
 003222,-0.00000041,-0.00000382,0.00002976,-0.00000726,0.00000935,0.000
 00795,-0.00002852,0.00000581,0.00001408,-0.00002528,0.00001209,-0.0000
 1679,-0.00001419,0.00001613,-0.00001694,-0.00002529,-0.00000704,0.0000
 1548,0.00000735,-0.00000800,-0.00001223,0.00002106,-0.00000036,0.00001
 728,-0.00001477,-0.00000907,0.00001933,0.00001398,-0.00000374,0.000010
 52,0.00000086,-0.00000745,-0.00002546,0.00001959,-0.00000360,-0.000007
 93,0.00002620,-0.00000933,-0.00000693,0.00002227,0.00000427,-0.0000155
 9,0.00000510,-0.00001353,0.00001271,0.00002453\\\@


 THERE'S SMALL CHOICE IN A BOWL OF ROTTEN APPLES.
                     SHAKESPEARE
 Job cpu time:  0 days  0 hours 30 minutes  1.8 seconds.
 File lengths (MBytes):  RWF=    154 Int=      0 D2E=      0 Chk=      5 Scr=      1
 Normal termination of Gaussian 09 at Wed Sep 26 06:17:01 2018.
