 Entering Gaussian System, Link 0=g16
 Input=TS2.com
 Output=TS2.log
 Initial command:
 /opt/g16/l1.exe "/scratch/Grace/g03/Gau-32021.inp" -scrdir="/scratch/Grace/g03/"
 Entering Link 1 = /opt/g16/l1.exe PID=     32022.
  
 Copyright (c) 1988,1990,1992,1993,1995,1998,2003,2009,2016,
            Gaussian, Inc.  All Rights Reserved.
  
 This is part of the Gaussian(R) 16 program.  It is based on
 the Gaussian(R) 09 system (copyright 2009, Gaussian, Inc.),
 the Gaussian(R) 03 system (copyright 2003, Gaussian, Inc.),
 the Gaussian(R) 98 system (copyright 1998, Gaussian, Inc.),
 the Gaussian(R) 94 system (copyright 1995, Gaussian, Inc.),
 the Gaussian 92(TM) system (copyright 1992, Gaussian, Inc.),
 the Gaussian 90(TM) system (copyright 1990, Gaussian, Inc.),
 the Gaussian 88(TM) system (copyright 1988, Gaussian, Inc.),
 the Gaussian 86(TM) system (copyright 1986, Carnegie Mellon
 University), and the Gaussian 82(TM) system (copyright 1983,
 Carnegie Mellon University). Gaussian is a federally registered
 trademark of Gaussian, Inc.
  
 This software contains proprietary and confidential information,
 including trade secrets, belonging to Gaussian, Inc.
  
 This software is provided under written license and may be
 used, copied, transmitted, or stored only in accord with that
 written license.
  
 The following legend is applicable only to US Government
 contracts under FAR:
  
                    RESTRICTED RIGHTS LEGEND
  
 Use, reproduction and disclosure by the US Government is
 subject to restrictions as set forth in subparagraphs (a)
 and (c) of the Commercial Computer Software - Restricted
 Rights clause in FAR 52.227-19.
  
 Gaussian, Inc.
 340 Quinnipiac St., Bldg. 40, Wallingford CT 06492
  
  
 ---------------------------------------------------------------
 Warning -- This program may not be used in any manner that
 competes with the business of Gaussian, Inc. or will provide
 assistance to any competitor of Gaussian, Inc.  The licensee
 of this program is prohibited from giving any competitor of
 Gaussian, Inc. access to this program.  By using this program,
 the user acknowledges that Gaussian, Inc. is engaged in the
 business of creating and licensing software in the field of
 computational chemistry and represents and warrants to the
 licensee that it is not a competitor of Gaussian, Inc. and that
 it will not use this program in any manner prohibited above.
 ---------------------------------------------------------------
  

 Cite this work as:
 Gaussian 16, Revision A.03,
 M. J. Frisch, G. W. Trucks, H. B. Schlegel, G. E. Scuseria, 
 M. A. Robb, J. R. Cheeseman, G. Scalmani, V. Barone, 
 G. A. Petersson, H. Nakatsuji, X. Li, M. Caricato, A. V. Marenich, 
 J. Bloino, B. G. Janesko, R. Gomperts, B. Mennucci, H. P. Hratchian, 
 J. V. Ortiz, A. F. Izmaylov, J. L. Sonnenberg, D. Williams-Young, 
 F. Ding, F. Lipparini, F. Egidi, J. Goings, B. Peng, A. Petrone, 
 T. Henderson, D. Ranasinghe, V. G. Zakrzewski, J. Gao, N. Rega, 
 G. Zheng, W. Liang, M. Hada, M. Ehara, K. Toyota, R. Fukuda, 
 J. Hasegawa, M. Ishida, T. Nakajima, Y. Honda, O. Kitao, H. Nakai, 
 T. Vreven, K. Throssell, J. A. Montgomery, Jr., J. E. Peralta, 
 F. Ogliaro, M. J. Bearpark, J. J. Heyd, E. N. Brothers, K. N. Kudin, 
 V. N. Staroverov, T. A. Keith, R. Kobayashi, J. Normand, 
 K. Raghavachari, A. P. Rendell, J. C. Burant, S. S. Iyengar, 
 J. Tomasi, M. Cossi, J. M. Millam, M. Klene, C. Adamo, R. Cammi, 
 J. W. Ochterski, R. L. Martin, K. Morokuma, O. Farkas, 
 J. B. Foresman, and D. J. Fox, Gaussian, Inc., Wallingford CT, 2016.
 
 ******************************************
 Gaussian 16:  ES64L-G16RevA.03 25-Dec-2016
                24-Mar-2019 
 ******************************************
 ----------------------------------------------------------
 #B3LYP/6-31+G(d,p) OPT(TS,CalcFC,Noeigentest) Freq=hpmodes
 ----------------------------------------------------------
 1/5=1,10=4,11=1,18=20,26=3,38=1/1,3;
 2/9=110,12=2,17=6,18=5,40=1/2;
 3/5=1,6=6,7=111,11=2,25=1,30=1,71=2,74=-5,140=1/1,2,3;
 4//1;
 5/5=2,38=5/2;
 8/6=4,10=90,11=11/1;
 11/6=1,8=1,9=11,15=111,16=1/1,2,10;
 10/6=1,13=1/2;
 6/7=2,8=2,9=2,10=2,28=1/1;
 7/10=1,18=20,25=1/1,2,3,16;
 1/5=1,10=4,11=1,18=20,26=3/3(2);
 2/9=110/2;
 99//99;
 2/9=110/2;
 3/5=1,6=6,7=111,11=2,25=1,30=1,71=1,74=-5/1,2,3;
 4/5=5,16=3,69=1/1;
 5/5=2,38=5/2;
 7//1,2,3,16;
 1/5=1,11=1,18=20,26=3/3(-5);
 2/9=110/2;
 6/7=2,8=2,9=2,10=2,19=2,28=1/1;
 99/9=1/99;
 ----------------------------------------------------------------------
 reoptimize TS2 after reorder atomic indices in order to compare with T
 S1, and also shift and rotate TS2
 ----------------------------------------------------------------------
 Symbolic Z-matrix:
 Charge =  0 Multiplicity = 1
 6                     1.42453   0.9119   -0.6887 
 6                     1.2052   -0.62157  -0.01117 
 6                     0.39882  -0.21812   1.39029 
 6                    -0.90982   0.48633   1.07258 
 6                    -0.64615   1.87669   0.46186 
 6                     0.21035   1.81309  -0.81576 
 1                     2.16325   1.3058    0.00955 
 1                     1.90995   0.70691  -1.64318 
 1                    -1.41688   0.6425    2.03793 
 1                    -1.59474   2.38354   0.25036 
 1                    -0.12569   2.48394   1.21414 
 1                    -0.39974   1.5426   -1.6819 
 1                     0.5928    2.81916  -1.04081 
 1                     1.11335   0.39485   1.9393 
 8                     2.36228  -1.06109   0.32794 
 6                    -1.78479  -0.43713   0.22213 
 1                    -2.10713  -1.2871    0.83528 
 1                    -2.69284   0.07337  -0.11859 
 6                    -1.01675  -0.99579  -1.01053 
 7                     0.35083  -1.36624  -0.7916 
 1                    -1.53809  -1.87571  -1.40559 
 1                    -1.05711  -0.25051  -1.82292 
 1                     0.26929  -1.16994   1.90635 
 

 GradGradGradGradGradGradGradGradGradGradGradGradGradGradGradGradGradGrad
 Berny optimization.
 Initialization pass.
                           ----------------------------
                           !    Initial Parameters    !
                           ! (Angstroms and Degrees)  !
 --------------------------                            --------------------------
 ! Name  Definition              Value          Derivative Info.                !
 --------------------------------------------------------------------------------
 ! R1    R(1,2)                  1.6908         calculate D2E/DX2 analytically  !
 ! R2    R(1,6)                  1.5174         calculate D2E/DX2 analytically  !
 ! R3    R(1,7)                  1.0901         calculate D2E/DX2 analytically  !
 ! R4    R(1,8)                  1.0903         calculate D2E/DX2 analytically  !
 ! R5    R(2,3)                  1.6665         calculate D2E/DX2 analytically  !
 ! R6    R(2,15)                 1.2834         calculate D2E/DX2 analytically  !
 ! R7    R(2,20)                 1.3761         calculate D2E/DX2 analytically  !
 ! R8    R(3,4)                  1.5198         calculate D2E/DX2 analytically  !
 ! R9    R(3,14)                 1.0898         calculate D2E/DX2 analytically  !
 ! R10   R(3,23)                 1.0904         calculate D2E/DX2 analytically  !
 ! R11   R(4,5)                  1.5413         calculate D2E/DX2 analytically  !
 ! R12   R(4,9)                  1.1015         calculate D2E/DX2 analytically  !
 ! R13   R(4,16)                 1.5302         calculate D2E/DX2 analytically  !
 ! R14   R(5,6)                  1.5395         calculate D2E/DX2 analytically  !
 ! R15   R(5,10)                 1.0961         calculate D2E/DX2 analytically  !
 ! R16   R(5,11)                 1.098          calculate D2E/DX2 analytically  !
 ! R17   R(6,12)                 1.0934         calculate D2E/DX2 analytically  !
 ! R18   R(6,13)                 1.0996         calculate D2E/DX2 analytically  !
 ! R19   R(16,17)                1.0965         calculate D2E/DX2 analytically  !
 ! R20   R(16,18)                1.096          calculate D2E/DX2 analytically  !
 ! R21   R(16,19)                1.5561         calculate D2E/DX2 analytically  !
 ! R22   R(19,20)                1.4337         calculate D2E/DX2 analytically  !
 ! R23   R(19,21)                1.0964         calculate D2E/DX2 analytically  !
 ! R24   R(19,22)                1.1032         calculate D2E/DX2 analytically  !
 ! A1    A(2,1,6)              117.9306         calculate D2E/DX2 analytically  !
 ! A2    A(2,1,7)               99.1457         calculate D2E/DX2 analytically  !
 ! A3    A(2,1,8)              103.7707         calculate D2E/DX2 analytically  !
 ! A4    A(6,1,7)              112.4121         calculate D2E/DX2 analytically  !
 ! A5    A(6,1,8)              113.2425         calculate D2E/DX2 analytically  !
 ! A6    A(7,1,8)              109.0851         calculate D2E/DX2 analytically  !
 ! A7    A(1,2,3)              100.3808         calculate D2E/DX2 analytically  !
 ! A8    A(1,2,15)             107.4303         calculate D2E/DX2 analytically  !
 ! A9    A(1,2,20)             110.1261         calculate D2E/DX2 analytically  !
 ! A10   A(3,2,15)             107.2757         calculate D2E/DX2 analytically  !
 ! A11   A(3,2,20)             107.9108         calculate D2E/DX2 analytically  !
 ! A12   A(15,2,20)            121.6222         calculate D2E/DX2 analytically  !
 ! A13   A(2,3,4)              110.6756         calculate D2E/DX2 analytically  !
 ! A14   A(2,3,14)             104.0382         calculate D2E/DX2 analytically  !
 ! A15   A(2,3,23)             104.132          calculate D2E/DX2 analytically  !
 ! A16   A(4,3,14)             114.152          calculate D2E/DX2 analytically  !
 ! A17   A(4,3,23)             113.6558         calculate D2E/DX2 analytically  !
 ! A18   A(14,3,23)            109.2946         calculate D2E/DX2 analytically  !
 ! A19   A(3,4,5)              110.7112         calculate D2E/DX2 analytically  !
 ! A20   A(3,4,9)              106.1934         calculate D2E/DX2 analytically  !
 ! A21   A(3,4,16)             109.1965         calculate D2E/DX2 analytically  !
 ! A22   A(5,4,9)              107.3444         calculate D2E/DX2 analytically  !
 ! A23   A(5,4,16)             114.9592         calculate D2E/DX2 analytically  !
 ! A24   A(9,4,16)             108.0232         calculate D2E/DX2 analytically  !
 ! A25   A(4,5,6)              112.753          calculate D2E/DX2 analytically  !
 ! A26   A(4,5,10)             110.215          calculate D2E/DX2 analytically  !
 ! A27   A(4,5,11)             107.9691         calculate D2E/DX2 analytically  !
 ! A28   A(6,5,10)             109.9044         calculate D2E/DX2 analytically  !
 ! A29   A(6,5,11)             109.1309         calculate D2E/DX2 analytically  !
 ! A30   A(10,5,11)            106.6594         calculate D2E/DX2 analytically  !
 ! A31   A(1,6,5)              113.5926         calculate D2E/DX2 analytically  !
 ! A32   A(1,6,12)             111.4611         calculate D2E/DX2 analytically  !
 ! A33   A(1,6,13)             106.3922         calculate D2E/DX2 analytically  !
 ! A34   A(5,6,12)             110.928          calculate D2E/DX2 analytically  !
 ! A35   A(5,6,13)             109.0006         calculate D2E/DX2 analytically  !
 ! A36   A(12,6,13)            104.9682         calculate D2E/DX2 analytically  !
 ! A37   A(4,16,17)            108.9721         calculate D2E/DX2 analytically  !
 ! A38   A(4,16,18)            111.4328         calculate D2E/DX2 analytically  !
 ! A39   A(4,16,19)            112.005          calculate D2E/DX2 analytically  !
 ! A40   A(17,16,18)           106.9382         calculate D2E/DX2 analytically  !
 ! A41   A(17,16,19)           108.0445         calculate D2E/DX2 analytically  !
 ! A42   A(18,16,19)           109.2621         calculate D2E/DX2 analytically  !
 ! A43   A(16,19,20)           116.2705         calculate D2E/DX2 analytically  !
 ! A44   A(16,19,21)           109.8072         calculate D2E/DX2 analytically  !
 ! A45   A(16,19,22)           108.8286         calculate D2E/DX2 analytically  !
 ! A46   A(20,19,21)           107.5314         calculate D2E/DX2 analytically  !
 ! A47   A(20,19,22)           108.7787         calculate D2E/DX2 analytically  !
 ! A48   A(21,19,22)           105.0367         calculate D2E/DX2 analytically  !
 ! A49   A(2,20,19)            122.6181         calculate D2E/DX2 analytically  !
 ! D1    D(6,1,2,3)            -51.1657         calculate D2E/DX2 analytically  !
 ! D2    D(6,1,2,15)          -163.1254         calculate D2E/DX2 analytically  !
 ! D3    D(6,1,2,20)            62.4198         calculate D2E/DX2 analytically  !
 ! D4    D(7,1,2,3)             70.3305         calculate D2E/DX2 analytically  !
 ! D5    D(7,1,2,15)           -41.6293         calculate D2E/DX2 analytically  !
 ! D6    D(7,1,2,20)          -176.084          calculate D2E/DX2 analytically  !
 ! D7    D(8,1,2,3)           -177.3086         calculate D2E/DX2 analytically  !
 ! D8    D(8,1,2,15)            70.7316         calculate D2E/DX2 analytically  !
 ! D9    D(8,1,2,20)           -63.7231         calculate D2E/DX2 analytically  !
 ! D10   D(2,1,6,5)             46.7531         calculate D2E/DX2 analytically  !
 ! D11   D(2,1,6,12)           -79.4398         calculate D2E/DX2 analytically  !
 ! D12   D(2,1,6,13)           166.6737         calculate D2E/DX2 analytically  !
 ! D13   D(7,1,6,5)            -67.656          calculate D2E/DX2 analytically  !
 ! D14   D(7,1,6,12)           166.1512         calculate D2E/DX2 analytically  !
 ! D15   D(7,1,6,13)            52.2646         calculate D2E/DX2 analytically  !
 ! D16   D(8,1,6,5)            168.1462         calculate D2E/DX2 analytically  !
 ! D17   D(8,1,6,12)            41.9534         calculate D2E/DX2 analytically  !
 ! D18   D(8,1,6,13)           -71.9332         calculate D2E/DX2 analytically  !
 ! D19   D(1,2,3,4)             60.2908         calculate D2E/DX2 analytically  !
 ! D20   D(1,2,3,14)           -62.7439         calculate D2E/DX2 analytically  !
 ! D21   D(1,2,3,23)          -177.2116         calculate D2E/DX2 analytically  !
 ! D22   D(15,2,3,4)           172.37           calculate D2E/DX2 analytically  !
 ! D23   D(15,2,3,14)           49.3353         calculate D2E/DX2 analytically  !
 ! D24   D(15,2,3,23)          -65.1325         calculate D2E/DX2 analytically  !
 ! D25   D(20,2,3,4)           -54.9761         calculate D2E/DX2 analytically  !
 ! D26   D(20,2,3,14)         -178.0108         calculate D2E/DX2 analytically  !
 ! D27   D(20,2,3,23)           67.5214         calculate D2E/DX2 analytically  !
 ! D28   D(1,2,20,19)          -63.1429         calculate D2E/DX2 analytically  !
 ! D29   D(3,2,20,19)           45.5274         calculate D2E/DX2 analytically  !
 ! D30   D(15,2,20,19)         169.9658         calculate D2E/DX2 analytically  !
 ! D31   D(2,3,4,5)            -68.377          calculate D2E/DX2 analytically  !
 ! D32   D(2,3,4,9)            175.4122         calculate D2E/DX2 analytically  !
 ! D33   D(2,3,4,16)            59.1639         calculate D2E/DX2 analytically  !
 ! D34   D(14,3,4,5)            48.5826         calculate D2E/DX2 analytically  !
 ! D35   D(14,3,4,9)           -67.6283         calculate D2E/DX2 analytically  !
 ! D36   D(14,3,4,16)          176.1235         calculate D2E/DX2 analytically  !
 ! D37   D(23,3,4,5)           174.8655         calculate D2E/DX2 analytically  !
 ! D38   D(23,3,4,9)            58.6546         calculate D2E/DX2 analytically  !
 ! D39   D(23,3,4,16)          -57.5936         calculate D2E/DX2 analytically  !
 ! D40   D(3,4,5,6)             57.654          calculate D2E/DX2 analytically  !
 ! D41   D(3,4,5,10)          -179.1266         calculate D2E/DX2 analytically  !
 ! D42   D(3,4,5,11)           -62.985          calculate D2E/DX2 analytically  !
 ! D43   D(9,4,5,6)            173.1491         calculate D2E/DX2 analytically  !
 ! D44   D(9,4,5,10)           -63.6315         calculate D2E/DX2 analytically  !
 ! D45   D(9,4,5,11)            52.5101         calculate D2E/DX2 analytically  !
 ! D46   D(16,4,5,6)           -66.6593         calculate D2E/DX2 analytically  !
 ! D47   D(16,4,5,10)           56.5602         calculate D2E/DX2 analytically  !
 ! D48   D(16,4,5,11)          172.7017         calculate D2E/DX2 analytically  !
 ! D49   D(3,4,16,17)           68.3169         calculate D2E/DX2 analytically  !
 ! D50   D(3,4,16,18)         -173.9136         calculate D2E/DX2 analytically  !
 ! D51   D(3,4,16,19)          -51.1696         calculate D2E/DX2 analytically  !
 ! D52   D(5,4,16,17)         -166.5759         calculate D2E/DX2 analytically  !
 ! D53   D(5,4,16,18)          -48.8064         calculate D2E/DX2 analytically  !
 ! D54   D(5,4,16,19)           73.9376         calculate D2E/DX2 analytically  !
 ! D55   D(9,4,16,17)          -46.759          calculate D2E/DX2 analytically  !
 ! D56   D(9,4,16,18)           71.0105         calculate D2E/DX2 analytically  !
 ! D57   D(9,4,16,19)         -166.2456         calculate D2E/DX2 analytically  !
 ! D58   D(4,5,6,1)            -46.0218         calculate D2E/DX2 analytically  !
 ! D59   D(4,5,6,12)            80.4521         calculate D2E/DX2 analytically  !
 ! D60   D(4,5,6,13)          -164.4515         calculate D2E/DX2 analytically  !
 ! D61   D(10,5,6,1)          -169.4139         calculate D2E/DX2 analytically  !
 ! D62   D(10,5,6,12)          -42.94           calculate D2E/DX2 analytically  !
 ! D63   D(10,5,6,13)           72.1564         calculate D2E/DX2 analytically  !
 ! D64   D(11,5,6,1)            73.9502         calculate D2E/DX2 analytically  !
 ! D65   D(11,5,6,12)         -159.576          calculate D2E/DX2 analytically  !
 ! D66   D(11,5,6,13)          -44.4796         calculate D2E/DX2 analytically  !
 ! D67   D(4,16,19,20)          39.6424         calculate D2E/DX2 analytically  !
 ! D68   D(4,16,19,21)         161.9742         calculate D2E/DX2 analytically  !
 ! D69   D(4,16,19,22)         -83.5598         calculate D2E/DX2 analytically  !
 ! D70   D(17,16,19,20)        -80.3873         calculate D2E/DX2 analytically  !
 ! D71   D(17,16,19,21)         41.9446         calculate D2E/DX2 analytically  !
 ! D72   D(17,16,19,22)        156.4105         calculate D2E/DX2 analytically  !
 ! D73   D(18,16,19,20)        163.6094         calculate D2E/DX2 analytically  !
 ! D74   D(18,16,19,21)        -74.0588         calculate D2E/DX2 analytically  !
 ! D75   D(18,16,19,22)         40.4072         calculate D2E/DX2 analytically  !
 ! D76   D(16,19,20,2)         -40.3415         calculate D2E/DX2 analytically  !
 ! D77   D(21,19,20,2)        -163.8609         calculate D2E/DX2 analytically  !
 ! D78   D(22,19,20,2)          82.8866         calculate D2E/DX2 analytically  !
 --------------------------------------------------------------------------------
 Trust Radius=3.00D-01 FncErr=1.00D-07 GrdErr=1.00D-06 EigMax=2.50D+02 EigMin=1.00D-04
 Number of steps in this run=    138 maximum allowed number of steps=    138.
 Search for a saddle point of order  1.
 GradGradGradGradGradGradGradGradGradGradGradGradGradGradGradGradGradGrad

                          Input orientation:                          
 ---------------------------------------------------------------------
 Center     Atomic      Atomic             Coordinates (Angstroms)
 Number     Number       Type             X           Y           Z
 ---------------------------------------------------------------------
      1          6           0        1.424532    0.911904   -0.688699
      2          6           0        1.205201   -0.621572   -0.011171
      3          6           0        0.398824   -0.218117    1.390289
      4          6           0       -0.909821    0.486334    1.072583
      5          6           0       -0.646154    1.876687    0.461855
      6          6           0        0.210346    1.813092   -0.815756
      7          1           0        2.163248    1.305795    0.009547
      8          1           0        1.909951    0.706906   -1.643175
      9          1           0       -1.416880    0.642498    2.037933
     10          1           0       -1.594738    2.383545    0.250356
     11          1           0       -0.125686    2.483939    1.214135
     12          1           0       -0.399738    1.542599   -1.681897
     13          1           0        0.592804    2.819158   -1.040811
     14          1           0        1.113352    0.394851    1.939295
     15          8           0        2.362281   -1.061095    0.327940
     16          6           0       -1.784790   -0.437126    0.222130
     17          1           0       -2.107128   -1.287104    0.835280
     18          1           0       -2.692838    0.073374   -0.118586
     19          6           0       -1.016746   -0.995788   -1.010533
     20          7           0        0.350828   -1.366235   -0.791597
     21          1           0       -1.538089   -1.875711   -1.405589
     22          1           0       -1.057110   -0.250507   -1.822921
     23          1           0        0.269289   -1.169940    1.906352
 ---------------------------------------------------------------------
                    Distance matrix (angstroms):
                    1          2          3          4          5
     1  C    0.000000
     2  C    1.690768   0.000000
     3  C    2.578994   1.666466   0.000000
     4  C    2.955068   2.622079   1.519783   0.000000
     5  C    2.557796   3.145245   2.518366   1.541294   0.000000
     6  C    1.517409   2.750397   3.004657   2.565323   1.539457
     7  H    1.090138   2.152447   2.709602   3.353403   2.902282
     8  H    1.090267   2.219226   3.512987   3.921111   3.511868
     9  H    3.947243   3.559777   2.111133   1.101543   2.145055
    10  H    3.487627   4.115675   3.470213   2.178205   1.096106
    11  H    2.914660   3.593999   2.758123   2.150658   1.097983
    12  H    2.170755   3.170298   3.629896   2.993834   2.183577
    13  H    2.110301   3.643324   3.895242   3.488034   2.163625
    14  H    2.696392   2.201333   1.089811   2.202904   2.733958
    15  O    2.409492   1.283359   2.386286   3.695360   4.207039
    16  C    3.598505   3.004746   2.486108   1.530236   2.589921
    17  H    4.430662   3.482949   2.780389   2.152891   3.504777
    18  H    4.240389   3.960959   3.452542   2.183706   2.788864
    19  C    3.114916   2.464916   2.893537   2.558807   3.249058
    20  N    2.520584   1.376060   2.465989   2.914861   3.616858
    21  H    4.130599   3.323087   3.783673   3.480706   4.285252
    22  H    2.965839   2.922016   3.527820   2.991417   3.148658
    23  H    3.521782   2.203074   1.090444   2.197434   3.493786
                    6          7          8          9         10
     6  C    0.000000
     7  H    2.179977   0.000000
     8  H    2.190189   1.776041   0.000000
     9  H    3.487362   4.167929   4.962108   0.000000
    10  H    2.172634   3.916886   4.321971   2.501661   0.000000
    11  H    2.164118   2.842230   3.932669   2.395148   1.759848
    12  H    1.093421   3.079928   2.456531   3.960038   2.422565
    13  H    1.099587   2.420705   2.561118   4.272627   2.577249
    14  H    3.227558   2.378240   3.683211   2.544236   3.760475
    15  O    3.768264   2.396488   2.686210   4.484236   5.246863
    16  C    3.181393   4.320876   4.294100   2.144315   2.827208
    17  H    4.208066   5.063701   5.124036   2.376169   3.752112
    18  H    3.455596   5.011672   4.889929   2.569542   2.584343
    19  C    3.071401   4.055886   3.444555   3.483853   3.652918
    20  N    3.182521   3.326626   2.730195   3.894360   4.351063
    21  H    4.124584   5.081780   4.314550   4.267776   4.570189
    22  H    2.622836   4.018796   3.122883   3.979082   3.394961
    23  H    4.038790   3.648865   4.337450   2.478994   4.340988
                   11         12         13         14         15
    11  H    0.000000
    12  H    3.057487   0.000000
    13  H    2.390267   1.739463   0.000000
    14  H    2.534830   4.088985   3.876760   0.000000
    15  O    4.420700   4.295045   4.478938   2.505208   0.000000
    16  C    3.502759   3.076199   4.225087   3.469881   4.195085
    17  H    4.276729   4.154345   5.260298   3.797277   4.503787
    18  H    3.765268   3.140203   4.380099   4.338814   5.200062
    19  C    4.225120   2.697191   4.140698   3.895212   3.635051
    20  N    4.367364   3.133257   4.199783   3.337759   2.322157
    21  H    5.278672   3.613452   5.168710   4.834650   4.345297
    22  H    4.191474   1.915008   3.571660   4.391089   4.120132
    23  H    3.739786   4.547636   4.970244   1.778229   2.623709
                   16         17         18         19         20
    16  C    0.000000
    17  H    1.096502   0.000000
    18  H    1.096015   1.761766   0.000000
    19  C    1.556102   2.163521   2.178982   0.000000
    20  N    2.540030   2.948650   3.433559   1.433675   0.000000
    21  H    2.186288   2.385740   2.605524   1.096418   2.050502
    22  H    2.178665   3.040248   2.384380   1.103199   2.071417
    23  H    2.755515   2.609268   3.797421   3.192559   2.706309
                   21         22         23
    21  H    0.000000
    22  H    1.745507   0.000000
    23  H    3.838447   4.063517   0.000000
 Stoichiometry    C8H13NO
 Framework group  C1[X(C8H13NO)]
 Deg. of freedom    63
 Full point group                 C1      NOp   1
 Largest Abelian subgroup         C1      NOp   1
 Largest concise Abelian subgroup C1      NOp   1
                         Standard orientation:                         
 ---------------------------------------------------------------------
 Center     Atomic      Atomic             Coordinates (Angstroms)
 Number     Number       Type             X           Y           Z
 ---------------------------------------------------------------------
      1          6           0        0.847355    1.305857   -0.659620
      2          6           0        1.277745   -0.157350    0.070097
      3          6           0        0.273242   -0.136743    1.399630
      4          6           0       -1.183961   -0.090133    0.970531
      5          6           0       -1.516514    1.265313    0.316495
      6          6           0       -0.626650    1.572980   -0.901458
      7          1           0        1.281240    1.995088    0.065021
      8          1           0        1.443646    1.326047   -1.572150
      9          1           0       -1.778843   -0.163553    1.894718
     10          1           0       -2.572530    1.295948    0.024363
     11          1           0       -1.376054    2.049522    1.072044
     12          1           0       -0.987426    1.049375   -1.790979
     13          1           0       -0.712249    2.641472   -1.146590
     14          1           0        0.599949    0.736250    1.964283
     15          8           0        2.480810   -0.033576    0.499429
     16          6           0       -1.494269   -1.316193    0.109074
     17          1           0       -1.453061   -2.213446    0.738006
     18          1           0       -2.505938   -1.265868   -0.309546
     19          6           0       -0.468165   -1.490842   -1.047672
     20          7           0        0.901600   -1.213211   -0.728159
     21          1           0       -0.515817   -2.515443   -1.435040
     22          1           0       -0.772387   -0.850777   -1.893139
     23          1           0        0.539103   -1.040865    1.948219
 ---------------------------------------------------------------------
 Rotational constants (GHZ):           1.8401559           1.4617424           1.2115052
 Standard basis: 6-31+G(d,p) (6D, 7F)
 There are   255 symmetry adapted cartesian basis functions of A   symmetry.
 There are   255 symmetry adapted basis functions of A   symmetry.
   255 basis functions,   411 primitive gaussians,   255 cartesian basis functions
    38 alpha electrons       38 beta electrons
       nuclear repulsion energy       577.1371798967 Hartrees.
 NAtoms=   23 NActive=   23 NUniq=   23 SFac= 1.00D+00 NAtFMM=   60 NAOKFM=F Big=F
 Integral buffers will be    131072 words long.
 Raffenetti 2 integral format.
 Two-electron integral symmetry is turned on.
 One-electron integrals computed using PRISM.
 NBasis=   255 RedAO= T EigKep=  1.17D-05  NBF=   255
 NBsUse=   255 1.00D-06 EigRej= -1.00D+00 NBFU=   255
 ExpMin= 4.38D-02 ExpMax= 5.48D+03 ExpMxC= 8.25D+02 IAcc=3 IRadAn=         5 AccDes= 0.00D+00
 Harris functional with IExCor=  402 and IRadAn=       5 diagonalized for initial guess.
 HarFok:  IExCor=  402 AccDes= 0.00D+00 IRadAn=         5 IDoV= 1 UseB2=F ITyADJ=14
 ICtDFT=  3500011 ScaDFX=  1.000000  1.000000  1.000000  1.000000
 FoFCou: FMM=F IPFlag=           0 FMFlag=      100000 FMFlg1=           0
         NFxFlg=           0 DoJE=T BraDBF=F KetDBF=T FulRan=T
         wScrn=  0.000000 ICntrl=       500 IOpCl=  0 I1Cent=   200000004 NGrid=           0
         NMat0=    1 NMatS0=      1 NMatT0=    0 NMatD0=    1 NMtDS0=    0 NMtDT0=    0
 Petite list used in FoFCou.
 Requested convergence on RMS density matrix=1.00D-08 within 128 cycles.
 Requested convergence on MAX density matrix=1.00D-06.
 Requested convergence on             energy=1.00D-06.
 No special actions if energy rises.
 EnCoef did     1 forward-backward iterations
 EnCoef did     3 forward-backward iterations
 EnCoef did     8 forward-backward iterations
 SCF Done:  E(RB3LYP) =  -442.547257222     A.U. after   20 cycles
            NFock= 20  Conv=0.31D-08     -V/T= 2.0096
 DoSCS=F DFT=T ScalE2(SS,OS)=  1.000000  1.000000
 Range of M.O.s used for correlation:     1   255
 NBasis=   255 NAE=    38 NBE=    38 NFC=     0 NFV=     0
 NROrb=    255 NOA=    38 NOB=    38 NVA=   217 NVB=   217

 **** Warning!!: The largest alpha MO coefficient is  0.95209990D+02


 **** Warning!!: The smallest alpha delta epsilon is  0.84643808D-01

 Symmetrizing basis deriv contribution to polar:
 IMax=3 JMax=2 DiffMx= 0.00D+00
 G2DrvN: will do    24 centers at a time, making    1 passes.
 Calling FoFCou, ICntrl=  3107 FMM=F I1Cent=   0 AccDes= 0.00D+00.
 End of G2Drv F.D. properties file   721 does not exist.
 End of G2Drv F.D. properties file   722 does not exist.
 End of G2Drv F.D. properties file   788 does not exist.
          IDoAtm=11111111111111111111111
          Differentiating once with respect to nuclear coordinates.
 CalDSu exits because no D1Ps are significant.
          There are    72 degrees of freedom in the 1st order CPHF.  IDoFFX=6 NUNeed=     0.
     66 vectors produced by pass  0 Test12= 1.15D-14 1.39D-09 XBig12= 6.98D-01 4.52D-01.
 AX will form    66 AO Fock derivatives at one time.
     66 vectors produced by pass  1 Test12= 1.15D-14 1.39D-09 XBig12= 7.33D-02 4.85D-02.
     66 vectors produced by pass  2 Test12= 1.15D-14 1.39D-09 XBig12= 7.35D-04 4.71D-03.
     66 vectors produced by pass  3 Test12= 1.15D-14 1.39D-09 XBig12= 1.95D-06 1.36D-04.
     66 vectors produced by pass  4 Test12= 1.15D-14 1.39D-09 XBig12= 3.26D-09 5.45D-06.
     56 vectors produced by pass  5 Test12= 1.15D-14 1.39D-09 XBig12= 3.48D-12 1.77D-07.
      6 vectors produced by pass  6 Test12= 1.15D-14 1.39D-09 XBig12= 3.87D-15 6.18D-09.
      2 vectors produced by pass  7 Test12= 1.15D-14 1.39D-09 XBig12= 1.31D-16 2.56D-09.
 InvSVY:  IOpt=1 It=  1 EMax= 8.88D-16
 Solved reduced A of dimension   394 with    72 vectors.
 End of Minotr F.D. properties file   721 does not exist.
 End of Minotr F.D. properties file   722 does not exist.
 End of Minotr F.D. properties file   788 does not exist.

 **********************************************************************

            Population analysis using the SCF density.

 **********************************************************************

 Orbital symmetries:
       Occupied  (A) (A) (A) (A) (A) (A) (A) (A) (A) (A) (A) (A)
                 (A) (A) (A) (A) (A) (A) (A) (A) (A) (A) (A) (A)
                 (A) (A) (A) (A) (A) (A) (A) (A) (A) (A) (A) (A)
                 (A) (A)
       Virtual   (A) (A) (A) (A) (A) (A) (A) (A) (A) (A) (A) (A)
                 (A) (A) (A) (A) (A) (A) (A) (A) (A) (A) (A) (A)
                 (A) (A) (A) (A) (A) (A) (A) (A) (A) (A) (A) (A)
                 (A) (A) (A) (A) (A) (A) (A) (A) (A) (A) (A) (A)
                 (A) (A) (A) (A) (A) (A) (A) (A) (A) (A) (A) (A)
                 (A) (A) (A) (A) (A) (A) (A) (A) (A) (A) (A) (A)
                 (A) (A) (A) (A) (A) (A) (A) (A) (A) (A) (A) (A)
                 (A) (A) (A) (A) (A) (A) (A) (A) (A) (A) (A) (A)
                 (A) (A) (A) (A) (A) (A) (A) (A) (A) (A) (A) (A)
                 (A) (A) (A) (A) (A) (A) (A) (A) (A) (A) (A) (A)
                 (A) (A) (A) (A) (A) (A) (A) (A) (A) (A) (A) (A)
                 (A) (A) (A) (A) (A) (A) (A) (A) (A) (A) (A) (A)
                 (A) (A) (A) (A) (A) (A) (A) (A) (A) (A) (A) (A)
                 (A) (A) (A) (A) (A) (A) (A) (A) (A) (A) (A) (A)
                 (A) (A) (A) (A) (A) (A) (A) (A) (A) (A) (A) (A)
                 (A) (A) (A) (A) (A) (A) (A) (A) (A) (A) (A) (A)
                 (A) (A) (A) (A) (A) (A) (A) (A) (A) (A) (A) (A)
                 (A) (A) (A) (A) (A) (A) (A) (A) (A) (A) (A) (A)
                 (A)
 The electronic state is 1-A.
 Alpha  occ. eigenvalues --  -19.09543 -14.35267 -10.27946 -10.23412 -10.23245
 Alpha  occ. eigenvalues --  -10.23229 -10.22149 -10.21423 -10.21163 -10.21107
 Alpha  occ. eigenvalues --   -1.00021  -0.90619  -0.84328  -0.79452  -0.75117
 Alpha  occ. eigenvalues --   -0.71393  -0.65953  -0.62397  -0.58870  -0.53572
 Alpha  occ. eigenvalues --   -0.50649  -0.48416  -0.47091  -0.45865  -0.45167
 Alpha  occ. eigenvalues --   -0.43952  -0.42563  -0.42162  -0.39586  -0.38598
 Alpha  occ. eigenvalues --   -0.37273  -0.37158  -0.35271  -0.34225  -0.33918
 Alpha  occ. eigenvalues --   -0.25943  -0.22868  -0.22547
 Alpha virt. eigenvalues --   -0.14082  -0.01439   0.00341   0.00780   0.01905
 Alpha virt. eigenvalues --    0.03204   0.03356   0.04096   0.04872   0.05154
 Alpha virt. eigenvalues --    0.07019   0.07574   0.07888   0.08265   0.09013
 Alpha virt. eigenvalues --    0.09183   0.10194   0.10771   0.11424   0.12352
 Alpha virt. eigenvalues --    0.12758   0.12856   0.13835   0.14136   0.14507
 Alpha virt. eigenvalues --    0.15238   0.16256   0.16977   0.17494   0.17833
 Alpha virt. eigenvalues --    0.17918   0.18464   0.19152   0.19900   0.20600
 Alpha virt. eigenvalues --    0.21316   0.22016   0.22330   0.22924   0.23296
 Alpha virt. eigenvalues --    0.24260   0.24372   0.25503   0.26308   0.26891
 Alpha virt. eigenvalues --    0.27610   0.28215   0.29204   0.30950   0.31388
 Alpha virt. eigenvalues --    0.31880   0.32990   0.33622   0.34856   0.35792
 Alpha virt. eigenvalues --    0.36864   0.37485   0.37971   0.38835   0.39228
 Alpha virt. eigenvalues --    0.40772   0.41494   0.42159   0.46256   0.48269
 Alpha virt. eigenvalues --    0.59456   0.61343   0.62589   0.63660   0.64759
 Alpha virt. eigenvalues --    0.65459   0.66552   0.69534   0.69924   0.70973
 Alpha virt. eigenvalues --    0.72925   0.74423   0.75695   0.76167   0.77863
 Alpha virt. eigenvalues --    0.78203   0.82095   0.83329   0.85455   0.86617
 Alpha virt. eigenvalues --    0.92343   0.93867   0.94739   0.95096   0.97482
 Alpha virt. eigenvalues --    0.98169   0.99471   1.02795   1.04211   1.05977
 Alpha virt. eigenvalues --    1.06093   1.08622   1.09379   1.09476   1.11199
 Alpha virt. eigenvalues --    1.13124   1.14186   1.14398   1.17206   1.20036
 Alpha virt. eigenvalues --    1.21342   1.27193   1.29070   1.31417   1.34506
 Alpha virt. eigenvalues --    1.34971   1.37433   1.40397   1.42435   1.44910
 Alpha virt. eigenvalues --    1.47164   1.50791   1.51516   1.56186   1.59032
 Alpha virt. eigenvalues --    1.61408   1.63470   1.65811   1.69455   1.70797
 Alpha virt. eigenvalues --    1.71820   1.77052   1.77859   1.78458   1.79639
 Alpha virt. eigenvalues --    1.81536   1.84886   1.85980   1.89860   1.91847
 Alpha virt. eigenvalues --    1.93335   1.94021   1.96043   1.98849   1.99791
 Alpha virt. eigenvalues --    2.01308   2.02725   2.06501   2.09765   2.10322
 Alpha virt. eigenvalues --    2.12898   2.14584   2.14821   2.16456   2.19382
 Alpha virt. eigenvalues --    2.20110   2.22118   2.22613   2.25608   2.27889
 Alpha virt. eigenvalues --    2.28761   2.30781   2.34334   2.35805   2.37845
 Alpha virt. eigenvalues --    2.38724   2.41169   2.42910   2.43046   2.44888
 Alpha virt. eigenvalues --    2.47908   2.50914   2.51994   2.54341   2.55031
 Alpha virt. eigenvalues --    2.59389   2.61049   2.64205   2.66324   2.66742
 Alpha virt. eigenvalues --    2.67272   2.69010   2.71237   2.74068   2.75655
 Alpha virt. eigenvalues --    2.76678   2.78084   2.80663   2.81883   2.84071
 Alpha virt. eigenvalues --    2.86553   2.88972   2.91820   2.92426   2.93265
 Alpha virt. eigenvalues --    2.96131   3.02284   3.08167   3.23811   3.28553
 Alpha virt. eigenvalues --    3.29855   3.34038   3.34212   3.35295   3.38581
 Alpha virt. eigenvalues --    3.45298   3.50233   3.51249   3.51292   3.52085
 Alpha virt. eigenvalues --    3.53537   3.55159   4.20898   4.32945   4.42027
 Alpha virt. eigenvalues --    4.46901   4.56454   4.60011   4.73194   4.76715
 Alpha virt. eigenvalues --    4.85274   4.89103
          Condensed to atoms (all electrons):
               1          2          3          4          5          6
     1  C    7.063501  -2.490625   0.275488   0.775228  -0.193680  -0.229024
     2  C   -2.490625  13.130294  -2.156070  -0.788107   0.233310  -0.049889
     3  C    0.275488  -2.156070   7.241306  -0.751424  -0.193871   0.286749
     4  C    0.775228  -0.788107  -0.751424   7.307336   0.289490  -0.575526
     5  C   -0.193680   0.233310  -0.193871   0.289490   5.402226   0.269537
     6  C   -0.229024  -0.049889   0.286749  -0.575526   0.269537   5.767119
     7  H    0.472383  -0.113201  -0.005547   0.009594   0.009134  -0.076000
     8  H    0.369704  -0.074061   0.033982  -0.016244   0.012535  -0.008302
     9  H   -0.031051   0.074955  -0.012961   0.235960  -0.023433   0.026609
    10  H    0.027423  -0.025756   0.026029  -0.069984   0.408819  -0.043499
    11  H    0.010993  -0.042412  -0.002108  -0.044532   0.434028  -0.055963
    12  H   -0.033758  -0.015057  -0.010914  -0.003266  -0.017105   0.381663
    13  H   -0.004984  -0.004046   0.000409   0.021584  -0.036880   0.351545
    14  H   -0.013347  -0.067973   0.440976  -0.069570  -0.009141   0.002847
    15  O   -0.046801   0.049281  -0.043856   0.057225  -0.020378   0.024405
    16  C   -0.370904   0.570786   0.090202  -0.457394  -0.038344   0.128494
    17  H    0.004875  -0.003067  -0.025234  -0.026581   0.008829  -0.004580
    18  H    0.010951  -0.044812   0.046885  -0.091741  -0.018512   0.003668
    19  C    0.364865  -1.210136   0.424740  -0.093017  -0.042428  -0.068842
    20  N    0.163168  -0.393585   0.145496   0.025093  -0.029143  -0.006124
    21  H    0.032306  -0.112462   0.022720   0.038273  -0.001395  -0.004105
    22  H   -0.066162   0.100052  -0.000072  -0.067835   0.018090   0.012445
    23  H    0.017810  -0.027739   0.347459   0.019683   0.012609  -0.003296
               7          8          9         10         11         12
     1  C    0.472383   0.369704  -0.031051   0.027423   0.010993  -0.033758
     2  C   -0.113201  -0.074061   0.074955  -0.025756  -0.042412  -0.015057
     3  C   -0.005547   0.033982  -0.012961   0.026029  -0.002108  -0.010914
     4  C    0.009594  -0.016244   0.235960  -0.069984  -0.044532  -0.003266
     5  C    0.009134   0.012535  -0.023433   0.408819   0.434028  -0.017105
     6  C   -0.076000  -0.008302   0.026609  -0.043499  -0.055963   0.381663
     7  H    0.529602  -0.026018  -0.000138  -0.000035   0.002311   0.004816
     8  H   -0.026018   0.530751   0.000010  -0.000100  -0.000060  -0.005510
     9  H   -0.000138   0.000010   0.589038  -0.002849  -0.006010  -0.000179
    10  H   -0.000035  -0.000100  -0.002849   0.572482  -0.029769  -0.005890
    11  H    0.002311  -0.000060  -0.006010  -0.029769   0.571162   0.005062
    12  H    0.004816  -0.005510  -0.000179  -0.005890   0.005062   0.585770
    13  H   -0.005312   0.000119  -0.000057  -0.001002  -0.007297  -0.029430
    14  H    0.002274   0.000210  -0.001906   0.000060   0.002883   0.000071
    15  O   -0.010006   0.001457  -0.000883   0.000180   0.000011  -0.000539
    16  C    0.001398   0.010189   0.021804  -0.010910   0.014212   0.024446
    17  H   -0.000001  -0.000000  -0.005031   0.000088  -0.000159  -0.000028
    18  H   -0.000000   0.000001  -0.001642   0.002768   0.000159   0.000235
    19  C   -0.000173  -0.006921  -0.002590   0.008834  -0.000592  -0.026320
    20  N    0.015559  -0.003608  -0.004497   0.001067   0.001589   0.004869
    21  H    0.000014  -0.000057  -0.000204  -0.000004   0.000006   0.000423
    22  H   -0.000080   0.001215   0.000140   0.000015  -0.000040   0.003839
    23  H    0.000161  -0.000123  -0.003268  -0.000131   0.000073   0.000009
              13         14         15         16         17         18
     1  C   -0.004984  -0.013347  -0.046801  -0.370904   0.004875   0.010951
     2  C   -0.004046  -0.067973   0.049281   0.570786  -0.003067  -0.044812
     3  C    0.000409   0.440976  -0.043856   0.090202  -0.025234   0.046885
     4  C    0.021584  -0.069570   0.057225  -0.457394  -0.026581  -0.091741
     5  C   -0.036880  -0.009141  -0.020378  -0.038344   0.008829  -0.018512
     6  C    0.351545   0.002847   0.024405   0.128494  -0.004580   0.003668
     7  H   -0.005312   0.002274  -0.010006   0.001398  -0.000001  -0.000000
     8  H    0.000119   0.000210   0.001457   0.010189  -0.000000   0.000001
     9  H   -0.000057  -0.001906  -0.000883   0.021804  -0.005031  -0.001642
    10  H   -0.001002   0.000060   0.000180  -0.010910   0.000088   0.002768
    11  H   -0.007297   0.002883   0.000011   0.014212  -0.000159   0.000159
    12  H   -0.029430   0.000071  -0.000539   0.024446  -0.000028   0.000235
    13  H    0.558358  -0.000185  -0.000103  -0.006647   0.000004  -0.000036
    14  H   -0.000185   0.535030  -0.010111   0.021059  -0.000006  -0.000114
    15  O   -0.000103  -0.010111   8.452537  -0.045764  -0.000409   0.000278
    16  C   -0.006647   0.021059  -0.045764   5.891562   0.431683   0.417799
    17  H    0.000004  -0.000006  -0.000409   0.431683   0.556468  -0.030514
    18  H   -0.000036  -0.000114   0.000278   0.417799  -0.030514   0.568837
    19  C    0.003795   0.003298   0.079520  -0.106948  -0.069879  -0.012151
    20  N    0.000797   0.009184  -0.110962   0.012401   0.008060   0.007179
    21  H   -0.000008   0.000020   0.001061  -0.111483  -0.007675   0.002121
    22  H   -0.000049   0.000019  -0.001673   0.011721   0.004692  -0.006740
    23  H    0.000010  -0.026176  -0.006352  -0.025978   0.001972  -0.000036
              19         20         21         22         23
     1  C    0.364865   0.163168   0.032306  -0.066162   0.017810
     2  C   -1.210136  -0.393585  -0.112462   0.100052  -0.027739
     3  C    0.424740   0.145496   0.022720  -0.000072   0.347459
     4  C   -0.093017   0.025093   0.038273  -0.067835   0.019683
     5  C   -0.042428  -0.029143  -0.001395   0.018090   0.012609
     6  C   -0.068842  -0.006124  -0.004105   0.012445  -0.003296
     7  H   -0.000173   0.015559   0.000014  -0.000080   0.000161
     8  H   -0.006921  -0.003608  -0.000057   0.001215  -0.000123
     9  H   -0.002590  -0.004497  -0.000204   0.000140  -0.003268
    10  H    0.008834   0.001067  -0.000004   0.000015  -0.000131
    11  H   -0.000592   0.001589   0.000006  -0.000040   0.000073
    12  H   -0.026320   0.004869   0.000423   0.003839   0.000009
    13  H    0.003795   0.000797  -0.000008  -0.000049   0.000010
    14  H    0.003298   0.009184   0.000020   0.000019  -0.026176
    15  O    0.079520  -0.110962   0.001061  -0.001673  -0.006352
    16  C   -0.106948   0.012401  -0.111483   0.011721  -0.025978
    17  H   -0.069879   0.008060  -0.007675   0.004692   0.001972
    18  H   -0.012151   0.007179   0.002121  -0.006740  -0.000036
    19  C    5.925154   0.139571   0.507815   0.326952  -0.011837
    20  N    0.139571   7.068861  -0.073215  -0.043806  -0.003311
    21  H    0.507815  -0.073215   0.595688  -0.041556  -0.000049
    22  H    0.326952  -0.043806  -0.041556   0.607200  -0.000074
    23  H   -0.011837  -0.003311  -0.000049  -0.000074   0.521933
 Mulliken charges:
               1
     1  C   -0.108358
     2  C   -0.539679
     3  C   -0.180383
     4  C    0.275757
     5  C   -0.474297
     6  C   -0.129929
     7  H    0.189265
     8  H    0.180832
     9  H    0.148184
    10  H    0.142165
    11  H    0.146454
    12  H    0.136796
    13  H    0.159415
    14  H    0.180597
    15  O   -0.368118
    16  C   -0.473384
    17  H    0.156493
    18  H    0.145418
    19  C   -0.132711
    20  N    0.065356
    21  H    0.151766
    22  H    0.141706
    23  H    0.186652
 Sum of Mulliken charges =  -0.00000
 Mulliken charges with hydrogens summed into heavy atoms:
               1
     1  C    0.261739
     2  C   -0.539679
     3  C    0.186866
     4  C    0.423941
     5  C   -0.185677
     6  C    0.166282
    15  O   -0.368118
    16  C   -0.171472
    19  C    0.160761
    20  N    0.065356
 APT charges:
               1
     1  C   -0.693337
     2  C   -0.756318
     3  C   -0.682208
     4  C   -0.078678
     5  C   -1.150562
     6  C   -0.781936
     7  H    0.453412
     8  H    0.506976
     9  H    0.523370
    10  H    0.502619
    11  H    0.439977
    12  H    0.346111
    13  H    0.574821
    14  H    0.449623
    15  O   -0.278820
    16  C   -1.193438
    17  H    0.478745
    18  H    0.481851
    19  C   -0.625532
    20  N    0.075209
    21  H    0.589582
    22  H    0.329496
    23  H    0.489038
 Sum of APT charges =  -0.00000
 APT charges with hydrogens summed into heavy atoms:
               1
     1  C    0.267051
     2  C   -0.756318
     3  C    0.256453
     4  C    0.444692
     5  C   -0.207967
     6  C    0.138996
    15  O   -0.278820
    16  C   -0.232842
    19  C    0.293546
    20  N    0.075209
 Electronic spatial extent (au):  <R**2>=           1226.7160
 Charge=              0.0000 electrons
 Dipole moment (field-independent basis, Debye):
    X=             -6.3336    Y=              1.7349    Z=             -0.1710  Tot=              6.5691
 Quadrupole moment (field-independent basis, Debye-Ang):
   XX=            -76.2179   YY=            -59.4909   ZZ=            -58.6910
   XY=              4.1983   XZ=             -1.5792   YZ=             -2.0576
 Traceless Quadrupole moment (field-independent basis, Debye-Ang):
   XX=            -11.4180   YY=              5.3090   ZZ=              6.1089
   XY=              4.1983   XZ=             -1.5792   YZ=             -2.0576
 Octapole moment (field-independent basis, Debye-Ang**2):
  XXX=            -40.8392  YYY=              4.9458  ZZZ=              2.7947  XYY=             -3.3528
  XXY=              5.7405  XXZ=             -6.8934  XZZ=             -1.4525  YZZ=              0.7583
  YYZ=              1.6317  XYZ=             -3.9197
 Hexadecapole moment (field-independent basis, Debye-Ang**3):
 XXXX=           -823.2016 YYYY=           -556.5560 ZZZZ=           -362.6753 XXXY=             11.0299
 XXXZ=            -17.3248 YYYX=             12.9600 YYYZ=             -4.0539 ZZZX=              1.7302
 ZZZY=             -3.4899 XXYY=           -223.6804 XXZZ=           -184.2572 YYZZ=           -152.8667
 XXYZ=             -6.0671 YYXZ=              6.5098 ZZXY=              5.3397
 N-N= 5.771371798967D+02 E-N=-2.181397041211D+03  KE= 4.383459424178D+02
  Exact polarizability:   0.000   0.000   0.000   0.000   0.000   0.000
 Approx polarizability: 204.541  39.234 192.441  43.358  40.252 190.357
 Calling FoFJK, ICntrl=    100147 FMM=F ISym2X=0 I1Cent= 0 IOpClX= 0 NMat=1 NMatS=1 NMatT=0.
 ***** Axes restored to original set *****
 -------------------------------------------------------------------
 Center     Atomic                   Forces (Hartrees/Bohr)
 Number     Number              X              Y              Z
 -------------------------------------------------------------------
      1        6          -0.000007397    0.000064137   -0.000055826
      2        6          -0.000060281   -0.000017915    0.000265880
      3        6           0.000026675   -0.000056953   -0.000066916
      4        6           0.000012217    0.000106430   -0.000042520
      5        6          -0.000054997   -0.000037677    0.000145792
      6        6           0.000033887    0.000050390   -0.000005000
      7        1           0.000003609    0.000005284    0.000004701
      8        1           0.000017834   -0.000017834    0.000001581
      9        1          -0.000009804   -0.000032485    0.000005641
     10        1           0.000006441    0.000012162    0.000005524
     11        1           0.000010495   -0.000020671   -0.000004831
     12        1          -0.000035667   -0.000029705   -0.000054656
     13        1           0.000006353   -0.000010883   -0.000013818
     14        1           0.000004063   -0.000007110   -0.000078799
     15        8          -0.000005302    0.000009263    0.000011395
     16        6           0.000044964    0.000053257    0.000041137
     17        1           0.000028116    0.000013985   -0.000044036
     18        1          -0.000022859   -0.000014285    0.000010400
     19        6          -0.000055216   -0.000010405   -0.000039977
     20        7           0.000047457   -0.000079261   -0.000133293
     21        1          -0.000002175   -0.000005460    0.000017762
     22        1           0.000018476    0.000005920    0.000031285
     23        1          -0.000006889    0.000019817   -0.000001425
 -------------------------------------------------------------------
 Cartesian Forces:  Max     0.000265880 RMS     0.000052648
 FormGI is forming the generalized inverse of G from B-inverse, IUseBI=4.

 GradGradGradGradGradGradGradGradGradGradGradGradGradGradGradGradGradGrad
 Berny optimization.
 Internal  Forces:  Max     0.000137005 RMS     0.000024654
 Search for a saddle point.
 Step number   1 out of a maximum of  138
 All quantities printed in internal units (Hartrees-Bohrs-Radians)
 Swapping is turned off.
 Second derivative matrix not updated -- analytic derivatives used.
 ITU=  0
     Eigenvalues ---   -0.01527   0.00250   0.00500   0.00673   0.01017
     Eigenvalues ---    0.01356   0.01853   0.02290   0.02544   0.03075
     Eigenvalues ---    0.03385   0.03737   0.03837   0.03881   0.03937
     Eigenvalues ---    0.04035   0.04309   0.04505   0.04987   0.05051
     Eigenvalues ---    0.05179   0.05669   0.06153   0.06306   0.06424
     Eigenvalues ---    0.06865   0.07259   0.07275   0.07659   0.08120
     Eigenvalues ---    0.08609   0.08739   0.08912   0.10015   0.11590
     Eigenvalues ---    0.13272   0.15424   0.16680   0.17363   0.18133
     Eigenvalues ---    0.19528   0.23668   0.24660   0.24951   0.26177
     Eigenvalues ---    0.26916   0.27295   0.29845   0.31828   0.32067
     Eigenvalues ---    0.32482   0.32789   0.33063   0.33579   0.33715
     Eigenvalues ---    0.33998   0.34494   0.34617   0.34778   0.35100
     Eigenvalues ---    0.35185   0.36863   0.58509
 Eigenvectors required to have negative eigenvalues:
                          D29       D28       D78       D76       A9
   1                    0.34611   0.31729  -0.30537  -0.30209   0.23185
                          D77       R1        D25       A11       R5
   1                   -0.22621  -0.21959  -0.20651  -0.19280   0.18880
 RFO step:  Lambda0=4.286467867D-07 Lambda=-1.23114321D-06.
 Linear search not attempted -- option 19 set.
 Iteration  1 RMS(Cart)=  0.00095940 RMS(Int)=  0.00000077
 Iteration  2 RMS(Cart)=  0.00000087 RMS(Int)=  0.00000023
 Variable       Old X    -DE/DX   Delta X   Delta X   Delta X     New X
                                 (Linear)    (Quad)   (Total)
    R1        3.19509   0.00007   0.00000   0.00004   0.00004   3.19513
    R2        2.86749   0.00002   0.00000   0.00026   0.00026   2.86775
    R3        2.06006   0.00001   0.00000   0.00005   0.00005   2.06011
    R4        2.06031   0.00001   0.00000   0.00005   0.00005   2.06036
    R5        3.14916  -0.00014   0.00000  -0.00024  -0.00025   3.14892
    R6        2.42520  -0.00000   0.00000  -0.00000  -0.00000   2.42520
    R7        2.60038   0.00008   0.00000   0.00030   0.00030   2.60068
    R8        2.87197  -0.00002   0.00000  -0.00009  -0.00009   2.87189
    R9        2.05944  -0.00004   0.00000  -0.00014  -0.00014   2.05930
   R10        2.06064  -0.00002   0.00000  -0.00009  -0.00009   2.06055
   R11        2.91262  -0.00006   0.00000  -0.00046  -0.00046   2.91216
   R12        2.08161   0.00000   0.00000   0.00004   0.00004   2.08166
   R13        2.89173  -0.00003   0.00000  -0.00011  -0.00011   2.89162
   R14        2.90915   0.00008   0.00000   0.00030   0.00030   2.90945
   R15        2.07134  -0.00000   0.00000  -0.00001  -0.00001   2.07133
   R16        2.07489  -0.00001   0.00000  -0.00003  -0.00003   2.07486
   R17        2.06627   0.00007   0.00000   0.00020   0.00020   2.06646
   R18        2.07792  -0.00001   0.00000  -0.00004  -0.00004   2.07788
   R19        2.07209  -0.00004   0.00000  -0.00012  -0.00012   2.07197
   R20        2.07117   0.00001   0.00000   0.00003   0.00003   2.07119
   R21        2.94061   0.00003   0.00000   0.00026   0.00026   2.94087
   R22        2.70925   0.00004   0.00000   0.00018   0.00018   2.70943
   R23        2.07193  -0.00000   0.00000  -0.00007  -0.00007   2.07186
   R24        2.08474  -0.00002   0.00000  -0.00015  -0.00015   2.08460
    A1        2.05828   0.00000   0.00000   0.00031   0.00031   2.05859
    A2        1.73042   0.00001   0.00000   0.00016   0.00016   1.73058
    A3        1.81114  -0.00002   0.00000  -0.00013  -0.00013   1.81101
    A4        1.96196  -0.00002   0.00000  -0.00033  -0.00033   1.96163
    A5        1.97645   0.00003   0.00000   0.00014   0.00014   1.97659
    A6        1.90389  -0.00000   0.00000  -0.00016  -0.00016   1.90374
    A7        1.75198  -0.00001   0.00000   0.00011   0.00011   1.75209
    A8        1.87501   0.00001   0.00000   0.00047   0.00047   1.87549
    A9        1.92206  -0.00002   0.00000   0.00077   0.00077   1.92283
   A10        1.87231  -0.00001   0.00000  -0.00074  -0.00074   1.87158
   A11        1.88340   0.00003   0.00000  -0.00055  -0.00055   1.88284
   A12        2.12271  -0.00001   0.00000  -0.00008  -0.00008   2.12263
   A13        1.93165   0.00005   0.00000   0.00019   0.00018   1.93184
   A14        1.81581  -0.00004   0.00000  -0.00104  -0.00104   1.81476
   A15        1.81745  -0.00002   0.00000   0.00037   0.00037   1.81782
   A16        1.99233  -0.00001   0.00000  -0.00011  -0.00011   1.99222
   A17        1.98367  -0.00000   0.00000   0.00020   0.00020   1.98387
   A18        1.90755   0.00002   0.00000   0.00032   0.00032   1.90787
   A19        1.93228   0.00002   0.00000  -0.00014  -0.00015   1.93213
   A20        1.85342  -0.00000   0.00000  -0.00030  -0.00030   1.85313
   A21        1.90584  -0.00002   0.00000  -0.00019  -0.00019   1.90565
   A22        1.87351  -0.00001   0.00000   0.00047   0.00047   1.87399
   A23        2.00642  -0.00000   0.00000   0.00045   0.00045   2.00687
   A24        1.88536   0.00001   0.00000  -0.00034  -0.00034   1.88502
   A25        1.96791  -0.00001   0.00000  -0.00051  -0.00051   1.96740
   A26        1.92361   0.00000   0.00000   0.00035   0.00035   1.92397
   A27        1.88442   0.00001   0.00000   0.00004   0.00004   1.88446
   A28        1.91819   0.00000   0.00000   0.00006   0.00006   1.91826
   A29        1.90469   0.00000   0.00000  -0.00004  -0.00004   1.90465
   A30        1.86156   0.00000   0.00000   0.00013   0.00013   1.86169
   A31        1.98256  -0.00004   0.00000  -0.00029  -0.00029   1.98227
   A32        1.94536   0.00002   0.00000   0.00009   0.00009   1.94545
   A33        1.85689  -0.00001   0.00000   0.00006   0.00006   1.85695
   A34        1.93606   0.00002   0.00000  -0.00010  -0.00010   1.93596
   A35        1.90242   0.00002   0.00000   0.00028   0.00028   1.90270
   A36        1.83204  -0.00001   0.00000   0.00001   0.00001   1.83205
   A37        1.90192   0.00002   0.00000  -0.00015  -0.00015   1.90177
   A38        1.94487  -0.00002   0.00000   0.00033   0.00033   1.94520
   A39        1.95486   0.00003   0.00000   0.00040   0.00040   1.95526
   A40        1.86642   0.00000   0.00000  -0.00010  -0.00010   1.86632
   A41        1.88573  -0.00004   0.00000  -0.00064  -0.00064   1.88509
   A42        1.90698   0.00001   0.00000   0.00010   0.00010   1.90708
   A43        2.02930  -0.00001   0.00000  -0.00044  -0.00044   2.02887
   A44        1.91650   0.00000   0.00000  -0.00029  -0.00029   1.91621
   A45        1.89942  -0.00001   0.00000  -0.00005  -0.00005   1.89937
   A46        1.87678  -0.00001   0.00000   0.00011   0.00011   1.87689
   A47        1.89855   0.00002   0.00000   0.00017   0.00017   1.89872
   A48        1.83324   0.00002   0.00000   0.00061   0.00061   1.83385
   A49        2.14009  -0.00006   0.00000  -0.00076  -0.00076   2.13933
    D1       -0.89301   0.00001   0.00000   0.00104   0.00104  -0.89197
    D2       -2.84708   0.00002   0.00000   0.00165   0.00165  -2.84543
    D3        1.08943   0.00003   0.00000   0.00075   0.00074   1.09018
    D4        1.22750  -0.00001   0.00000   0.00090   0.00090   1.22840
    D5       -0.72657   0.00000   0.00000   0.00151   0.00151  -0.72506
    D6       -3.07325   0.00002   0.00000   0.00061   0.00061  -3.07264
    D7       -3.09462  -0.00001   0.00000   0.00075   0.00075  -3.09387
    D8        1.23450  -0.00000   0.00000   0.00136   0.00136   1.23586
    D9       -1.11218   0.00001   0.00000   0.00045   0.00045  -1.11172
   D10        0.81599   0.00001   0.00000  -0.00009  -0.00009   0.81590
   D11       -1.38649   0.00000   0.00000   0.00021   0.00021  -1.38628
   D12        2.90900   0.00001   0.00000   0.00011   0.00011   2.90912
   D13       -1.18082   0.00001   0.00000  -0.00026  -0.00026  -1.18108
   D14        2.89989   0.00000   0.00000   0.00004   0.00004   2.89992
   D15        0.91219   0.00001   0.00000  -0.00005  -0.00005   0.91214
   D16        2.93470   0.00000   0.00000   0.00010   0.00010   2.93481
   D17        0.73222  -0.00000   0.00000   0.00040   0.00040   0.73263
   D18       -1.25547   0.00000   0.00000   0.00031   0.00031  -1.25516
   D19        1.05227  -0.00003   0.00000  -0.00083  -0.00083   1.05144
   D20       -1.09509  -0.00001   0.00000  -0.00017  -0.00017  -1.09525
   D21       -3.09293  -0.00001   0.00000  -0.00026  -0.00026  -3.09319
   D22        3.00842  -0.00002   0.00000  -0.00050  -0.00050   3.00792
   D23        0.86106  -0.00001   0.00000   0.00016   0.00016   0.86122
   D24       -1.13678  -0.00001   0.00000   0.00007   0.00007  -1.13671
   D25       -0.95951  -0.00001   0.00000  -0.00154  -0.00154  -0.96105
   D26       -3.10687   0.00000   0.00000  -0.00087  -0.00087  -3.10774
   D27        1.17847   0.00000   0.00000  -0.00096  -0.00096   1.17751
   D28       -1.10205  -0.00002   0.00000   0.00241   0.00241  -1.09964
   D29        0.79460  -0.00002   0.00000   0.00263   0.00262   0.79723
   D30        2.96646  -0.00001   0.00000   0.00097   0.00097   2.96744
   D31       -1.19340  -0.00001   0.00000  -0.00060  -0.00060  -1.19400
   D32        3.06152  -0.00001   0.00000  -0.00092  -0.00092   3.06060
   D33        1.03261  -0.00001   0.00000  -0.00027  -0.00027   1.03234
   D34        0.84793  -0.00003   0.00000  -0.00187  -0.00187   0.84605
   D35       -1.18034  -0.00003   0.00000  -0.00219  -0.00219  -1.18253
   D36        3.07393  -0.00003   0.00000  -0.00154  -0.00154   3.07240
   D37        3.05198  -0.00002   0.00000  -0.00133  -0.00133   3.05065
   D38        1.02372  -0.00002   0.00000  -0.00165  -0.00165   1.02206
   D39       -1.00520  -0.00002   0.00000  -0.00100  -0.00100  -1.00620
   D40        1.00625  -0.00000   0.00000   0.00151   0.00151   1.00776
   D41       -3.12635  -0.00001   0.00000   0.00148   0.00148  -3.12486
   D42       -1.09930  -0.00000   0.00000   0.00186   0.00186  -1.09744
   D43        3.02202   0.00000   0.00000   0.00135   0.00135   3.02337
   D44       -1.11058  -0.00000   0.00000   0.00132   0.00132  -1.10926
   D45        0.91647   0.00001   0.00000   0.00170   0.00170   0.91817
   D46       -1.16342   0.00001   0.00000   0.00154   0.00154  -1.16189
   D47        0.98716   0.00001   0.00000   0.00151   0.00151   0.98867
   D48        3.01421   0.00001   0.00000   0.00188   0.00188   3.01610
   D49        1.19235  -0.00001   0.00000   0.00014   0.00014   1.19249
   D50       -3.03536  -0.00001   0.00000   0.00012   0.00012  -3.03525
   D51       -0.89308   0.00001   0.00000   0.00078   0.00078  -0.89230
   D52       -2.90730  -0.00000   0.00000   0.00013   0.00013  -2.90717
   D53       -0.85183   0.00000   0.00000   0.00011   0.00011  -0.85173
   D54        1.29045   0.00002   0.00000   0.00077   0.00077   1.29123
   D55       -0.81610  -0.00000   0.00000   0.00077   0.00077  -0.81533
   D56        1.23937   0.00000   0.00000   0.00075   0.00075   1.24012
   D57       -2.90153   0.00002   0.00000   0.00142   0.00142  -2.90012
   D58       -0.80323  -0.00002   0.00000  -0.00113  -0.00112  -0.80436
   D59        1.40415  -0.00001   0.00000  -0.00132  -0.00132   1.40283
   D60       -2.87022  -0.00000   0.00000  -0.00120  -0.00120  -2.87142
   D61       -2.95683  -0.00001   0.00000  -0.00126  -0.00126  -2.95809
   D62       -0.74944  -0.00001   0.00000  -0.00146  -0.00146  -0.75091
   D63        1.25937   0.00000   0.00000  -0.00134  -0.00134   1.25803
   D64        1.29067  -0.00002   0.00000  -0.00144  -0.00143   1.28924
   D65       -2.78513  -0.00001   0.00000  -0.00163  -0.00163  -2.78676
   D66       -0.77631   0.00000   0.00000  -0.00151  -0.00151  -0.77783
   D67        0.69189   0.00002   0.00000   0.00047   0.00047   0.69236
   D68        2.82698   0.00001   0.00000   0.00006   0.00006   2.82704
   D69       -1.45839   0.00002   0.00000   0.00060   0.00060  -1.45779
   D70       -1.40302   0.00001   0.00000   0.00083   0.00083  -1.40219
   D71        0.73207  -0.00001   0.00000   0.00042   0.00042   0.73249
   D72        2.72988   0.00001   0.00000   0.00096   0.00096   2.73084
   D73        2.85552   0.00003   0.00000   0.00125   0.00125   2.85677
   D74       -1.29257   0.00001   0.00000   0.00084   0.00084  -1.29173
   D75        0.70524   0.00003   0.00000   0.00138   0.00138   0.70662
   D76       -0.70409   0.00002   0.00000  -0.00223  -0.00223  -0.70633
   D77       -2.85991   0.00003   0.00000  -0.00163  -0.00163  -2.86154
   D78        1.44664   0.00001   0.00000  -0.00248  -0.00248   1.44417
         Item               Value     Threshold  Converged?
 Maximum Force            0.000137     0.000450     YES
 RMS     Force            0.000025     0.000300     YES
 Maximum Displacement     0.003912     0.001800     NO 
 RMS     Displacement     0.000960     0.001200     YES
 Predicted change in Energy=-4.012422D-07
 GradGradGradGradGradGradGradGradGradGradGradGradGradGradGradGradGradGrad

                          Input orientation:                          
 ---------------------------------------------------------------------
 Center     Atomic      Atomic             Coordinates (Angstroms)
 Number     Number       Type             X           Y           Z
 ---------------------------------------------------------------------
      1          6           0        1.423860    0.911745   -0.689116
      2          6           0        1.205207   -0.621558   -0.010924
      3          6           0        0.398497   -0.218094    1.390188
      4          6           0       -0.909958    0.486565    1.072382
      5          6           0       -0.645824    1.877061    0.462799
      6          6           0        0.209653    1.813209   -0.815676
      7          1           0        2.163018    1.306126    0.008424
      8          1           0        1.908809    0.706365   -1.643782
      9          1           0       -1.417355    0.641657    2.037753
     10          1           0       -1.594014    2.385113    0.252426
     11          1           0       -0.123942    2.483142    1.215019
     12          1           0       -0.401314    1.542428   -1.681237
     13          1           0        0.592081    2.819094   -1.041482
     14          1           0        1.113386    0.395151    1.938266
     15          8           0        2.362127   -1.060553    0.329413
     16          6           0       -1.784524   -0.436677    0.221376
     17          1           0       -2.107032   -1.286678    0.834293
     18          1           0       -2.692547    0.073595   -0.119791
     19          6           0       -1.016101   -0.996171   -1.010849
     20          7           0        0.351011   -1.367765   -0.790350
     21          1           0       -1.537988   -1.875807   -1.405729
     22          1           0       -1.055112   -0.250849   -1.823162
     23          1           0        0.269002   -1.169613    1.906722
 ---------------------------------------------------------------------
                    Distance matrix (angstroms):
                    1          2          3          4          5
     1  C    0.000000
     2  C    1.690790   0.000000
     3  C    2.579033   1.666336   0.000000
     4  C    2.954718   2.622100   1.519737   0.000000
     5  C    2.557799   3.145446   2.518002   1.541051   0.000000
     6  C    1.517549   2.750790   3.004612   2.564815   1.539616
     7  H    1.090162   2.152613   2.710360   3.353635   2.902071
     8  H    1.090296   2.219158   3.512925   3.920626   3.512032
     9  H    3.947310   3.559581   2.110884   1.101565   2.145218
    10  H    3.487819   4.116438   3.470057   2.178244   1.096101
    11  H    2.913883   3.592873   2.756865   2.150462   1.097966
    12  H    2.171020   3.170756   3.629434   2.992655   2.183725
    13  H    2.110450   3.643633   3.895511   3.487870   2.163954
    14  H    2.695625   2.200334   1.089736   2.202733   2.732742
    15  O    2.409918   1.283359   2.385545   3.694878   4.206560
    16  C    3.597355   3.004435   2.485856   1.530180   2.590040
    17  H    4.429564   3.482485   2.780031   2.152688   3.504624
    18  H    4.239273   3.960754   3.452488   2.183905   2.789440
    19  C    3.114011   2.464628   2.893350   2.559224   3.250263
    20  N    2.521392   1.376219   2.465511   2.915194   3.618420
    21  H    4.129954   3.323212   3.783536   3.480841   4.286184
    22  H    2.963610   2.920731   3.526991   2.991491   3.149783
    23  H    3.521949   2.203227   1.090397   2.197498   3.493429
                    6          7          8          9         10
     6  C    0.000000
     7  H    2.179887   0.000000
     8  H    2.190433   1.775984   0.000000
     9  H    3.487369   4.168784   4.961981   0.000000
    10  H    2.172816   3.916508   4.322450   2.501647   0.000000
    11  H    2.164213   2.841025   3.932144   2.396011   1.759917
    12  H    1.093526   3.080031   2.457046   3.959118   2.423160
    13  H    1.099566   2.420582   2.561281   4.273260   2.577120
    14  H    3.226735   2.378212   3.682474   2.544663   3.759258
    15  O    3.768671   2.396633   2.687191   4.483350   5.246866
    16  C    3.180284   4.320393   4.292559   2.144025   2.828385
    17  H    4.206986   5.063400   5.122505   2.375384   3.752840
    18  H    3.454457   5.011195   4.888294   2.569787   2.586201
    19  C    3.071348   4.055402   3.443012   3.483886   3.655535
    20  N    3.184214   3.327326   2.730768   3.893978   4.353688
    21  H    4.124469   5.081532   4.313316   4.267288   4.572533
    22  H    2.622020   4.016869   3.119818   3.979252   3.398055
    23  H    4.038837   3.649674   4.337550   2.478239   4.340922
                   11         12         13         14         15
    11  H    0.000000
    12  H    3.057806   0.000000
    13  H    2.391099   1.739539   0.000000
    14  H    2.532542   4.087953   3.876358   0.000000
    15  O    4.418440   4.295909   4.479294   2.503365   0.000000
    16  C    3.502885   3.074096   4.224110   3.469515   4.194712
    17  H    4.276581   4.152254   5.259383   3.797157   4.503268
    18  H    3.766347   3.137727   4.379048   4.338678   5.199789
    19  C    4.225643   2.696641   4.140463   3.894583   3.634952
    20  N    4.367673   3.135107   4.201305   3.336830   2.322248
    21  H    5.279042   3.612792   5.168362   4.834185   4.345832
    22  H    4.191936   1.914011   3.570548   4.389537   4.119068
    23  H    3.738379   4.547301   4.970520   1.778333   2.623161
                   16         17         18         19         20
    16  C    0.000000
    17  H    1.096440   0.000000
    18  H    1.096029   1.761660   0.000000
    19  C    1.556241   2.163117   2.179187   0.000000
    20  N    2.539887   2.947545   3.433717   1.433771   0.000000
    21  H    2.186171   2.385075   2.605151   1.096383   2.050639
    22  H    2.178694   3.039991   2.384938   1.103122   2.071565
    23  H    2.755822   2.609472   3.797775   3.192772   2.705584
                   21         22         23
    21  H    0.000000
    22  H    1.745826   0.000000
    23  H    3.838783   4.063181   0.000000
 Stoichiometry    C8H13NO
 Framework group  C1[X(C8H13NO)]
 Deg. of freedom    63
 Full point group                 C1      NOp   1
 Largest Abelian subgroup         C1      NOp   1
 Largest concise Abelian subgroup C1      NOp   1
                         Standard orientation:                         
 ---------------------------------------------------------------------
 Center     Atomic      Atomic             Coordinates (Angstroms)
 Number     Number       Type             X           Y           Z
 ---------------------------------------------------------------------
      1          6           0        0.844947    1.306264   -0.661152
      2          6           0        1.277992   -0.155579    0.069778
      3          6           0        0.273644   -0.135835    1.399278
      4          6           0       -1.183682   -0.091069    0.970561
      5          6           0       -1.517975    1.263992    0.317187
      6          6           0       -0.629670    1.571579   -0.902124
      7          1           0        1.278403    1.997021    0.062327
      8          1           0        1.440661    1.326269   -1.574097
      9          1           0       -1.777978   -0.165960    1.895033
     10          1           0       -2.574391    1.294363    0.026499
     11          1           0       -1.376502    2.048308    1.072412
     12          1           0       -0.990766    1.046452   -1.790746
     13          1           0       -0.716650    2.639662   -1.148455
     14          1           0        0.599664    0.738243    1.962506
     15          8           0        2.480572   -0.029610    0.499829
     16          6           0       -1.492365   -1.317559    0.109231
     17          1           0       -1.449885   -2.214571    0.738315
     18          1           0       -2.504086   -1.268955   -0.309502
     19          6           0       -0.465754   -1.491954   -1.047291
     20          7           0        0.903731   -1.213588   -0.726793
     21          1           0       -0.512817   -2.516776   -1.434048
     22          1           0       -0.769924   -0.852035   -1.892786
     23          1           0        0.540748   -1.039060    1.948645
 ---------------------------------------------------------------------
 Rotational constants (GHZ):           1.8400525           1.4618512           1.2115578
 Standard basis: 6-31+G(d,p) (6D, 7F)
 There are   255 symmetry adapted cartesian basis functions of A   symmetry.
 There are   255 symmetry adapted basis functions of A   symmetry.
   255 basis functions,   411 primitive gaussians,   255 cartesian basis functions
    38 alpha electrons       38 beta electrons
       nuclear repulsion energy       577.1426759731 Hartrees.
 NAtoms=   23 NActive=   23 NUniq=   23 SFac= 1.00D+00 NAtFMM=   60 NAOKFM=F Big=F
 Integral buffers will be    131072 words long.
 Raffenetti 2 integral format.
 Two-electron integral symmetry is turned on.
 One-electron integrals computed using PRISM.
 NBasis=   255 RedAO= T EigKep=  1.17D-05  NBF=   255
 NBsUse=   255 1.00D-06 EigRej= -1.00D+00 NBFU=   255
 Initial guess from the checkpoint file:  "/scratch/Grace/g03/Gau-21658.chk"
 B after Tr=     0.000000   -0.000000   -0.000000
         Rot=    1.000000    0.000258   -0.000073   -0.000681 Ang=   0.08 deg.
 Requested convergence on RMS density matrix=1.00D-08 within 128 cycles.
 Requested convergence on MAX density matrix=1.00D-06.
 Requested convergence on             energy=1.00D-06.
 No special actions if energy rises.
 SCF Done:  E(RB3LYP) =  -442.547257523     A.U. after   11 cycles
            NFock= 11  Conv=0.96D-08     -V/T= 2.0096
 Calling FoFJK, ICntrl=      2127 FMM=F ISym2X=0 I1Cent= 0 IOpClX= 0 NMat=1 NMatS=1 NMatT=0.
 ***** Axes restored to original set *****
 -------------------------------------------------------------------
 Center     Atomic                   Forces (Hartrees/Bohr)
 Number     Number              X              Y              Z
 -------------------------------------------------------------------
      1        6           0.000000922    0.000000223   -0.000000999
      2        6          -0.000000676   -0.000001110    0.000001246
      3        6          -0.000000328   -0.000000378   -0.000001689
      4        6           0.000001086   -0.000000294   -0.000000858
      5        6          -0.000000185   -0.000000966    0.000002563
      6        6           0.000000919    0.000001045    0.000000661
      7        1           0.000000503   -0.000000973    0.000000449
      8        1          -0.000000158    0.000000293   -0.000000115
      9        1           0.000000436   -0.000000985    0.000000392
     10        1           0.000000898    0.000000415    0.000001750
     11        1           0.000001062   -0.000000886    0.000001516
     12        1          -0.000000082    0.000001063    0.000000699
     13        1           0.000000920    0.000000525    0.000001752
     14        1           0.000000261   -0.000002062   -0.000000147
     15        8          -0.000000429   -0.000001285   -0.000001382
     16        6          -0.000000250    0.000001210    0.000000364
     17        1          -0.000000547    0.000000263   -0.000000936
     18        1          -0.000000190    0.000001222    0.000000210
     19        6          -0.000000955    0.000000716   -0.000001410
     20        7          -0.000000697    0.000000341   -0.000001299
     21        1          -0.000001219    0.000001615   -0.000001447
     22        1          -0.000000915    0.000001573   -0.000000189
     23        1          -0.000000374   -0.000001564   -0.000001131
 -------------------------------------------------------------------
 Cartesian Forces:  Max     0.000002563 RMS     0.000000998

 GradGradGradGradGradGradGradGradGradGradGradGradGradGradGradGradGradGrad
 Berny optimization.
 FormGI is forming the generalized inverse of G from B-inverse, IUseBI=4.
 Internal  Forces:  Max     0.000001075 RMS     0.000000232
 Search for a saddle point.
 Step number   2 out of a maximum of  138
 All quantities printed in internal units (Hartrees-Bohrs-Radians)
 Swapping is turned off.
 Update second derivatives using D2CorX and points    1    2
 ITU=  0  0
     Eigenvalues ---   -0.01522   0.00250   0.00499   0.00672   0.01017
     Eigenvalues ---    0.01355   0.01853   0.02291   0.02544   0.03075
     Eigenvalues ---    0.03385   0.03737   0.03837   0.03881   0.03937
     Eigenvalues ---    0.04035   0.04309   0.04505   0.04987   0.05051
     Eigenvalues ---    0.05179   0.05669   0.06153   0.06306   0.06424
     Eigenvalues ---    0.06865   0.07259   0.07275   0.07659   0.08121
     Eigenvalues ---    0.08609   0.08739   0.08911   0.10015   0.11590
     Eigenvalues ---    0.13270   0.15424   0.16680   0.17363   0.18133
     Eigenvalues ---    0.19528   0.23668   0.24660   0.24951   0.26177
     Eigenvalues ---    0.26916   0.27295   0.29845   0.31828   0.32067
     Eigenvalues ---    0.32482   0.32789   0.33063   0.33579   0.33714
     Eigenvalues ---    0.33998   0.34494   0.34617   0.34778   0.35100
     Eigenvalues ---    0.35185   0.36863   0.58509
 Eigenvectors required to have negative eigenvalues:
                          D29       D28       D78       D76       A9
   1                    0.34592   0.31728  -0.30545  -0.30207   0.23191
                          D77       R1        D25       A11       R5
   1                   -0.22615  -0.21943  -0.20635  -0.19310   0.18850
 RFO step:  Lambda0=1.510312361D-11 Lambda= 0.00000000D+00.
 Linear search not attempted -- option 19 set.
 Iteration  1 RMS(Cart)=  0.00000652 RMS(Int)=  0.00000000
 Iteration  2 RMS(Cart)=  0.00000000 RMS(Int)=  0.00000000
 Variable       Old X    -DE/DX   Delta X   Delta X   Delta X     New X
                                 (Linear)    (Quad)   (Total)
    R1        3.19513   0.00000   0.00000   0.00001   0.00001   3.19514
    R2        2.86775   0.00000   0.00000   0.00000   0.00000   2.86776
    R3        2.06011   0.00000   0.00000   0.00000   0.00000   2.06011
    R4        2.06036   0.00000   0.00000  -0.00000  -0.00000   2.06036
    R5        3.14892  -0.00000   0.00000  -0.00000  -0.00000   3.14891
    R6        2.42520   0.00000   0.00000  -0.00000  -0.00000   2.42520
    R7        2.60068   0.00000   0.00000   0.00000   0.00000   2.60068
    R8        2.87189  -0.00000   0.00000  -0.00000  -0.00000   2.87188
    R9        2.05930  -0.00000   0.00000  -0.00000  -0.00000   2.05930
   R10        2.06055   0.00000   0.00000   0.00000   0.00000   2.06055
   R11        2.91216  -0.00000   0.00000  -0.00001  -0.00001   2.91216
   R12        2.08166  -0.00000   0.00000   0.00000   0.00000   2.08166
   R13        2.89162  -0.00000   0.00000  -0.00000  -0.00000   2.89162
   R14        2.90945   0.00000   0.00000   0.00000   0.00000   2.90946
   R15        2.07133  -0.00000   0.00000  -0.00000  -0.00000   2.07133
   R16        2.07486  -0.00000   0.00000  -0.00000  -0.00000   2.07486
   R17        2.06646   0.00000   0.00000   0.00000   0.00000   2.06647
   R18        2.07788   0.00000   0.00000  -0.00000  -0.00000   2.07788
   R19        2.07197  -0.00000   0.00000  -0.00000  -0.00000   2.07197
   R20        2.07119   0.00000   0.00000   0.00000   0.00000   2.07119
   R21        2.94087   0.00000   0.00000   0.00000   0.00000   2.94087
   R22        2.70943   0.00000   0.00000   0.00000   0.00000   2.70943
   R23        2.07186   0.00000   0.00000  -0.00000  -0.00000   2.07186
   R24        2.08460  -0.00000   0.00000  -0.00000  -0.00000   2.08460
    A1        2.05859  -0.00000   0.00000  -0.00000  -0.00000   2.05859
    A2        1.73058   0.00000   0.00000  -0.00000  -0.00000   1.73057
    A3        1.81101   0.00000   0.00000   0.00000   0.00000   1.81101
    A4        1.96163   0.00000   0.00000   0.00000   0.00000   1.96163
    A5        1.97659   0.00000   0.00000  -0.00000  -0.00000   1.97659
    A6        1.90374  -0.00000   0.00000   0.00000   0.00000   1.90374
    A7        1.75209   0.00000   0.00000   0.00000   0.00000   1.75209
    A8        1.87549  -0.00000   0.00000   0.00000   0.00000   1.87549
    A9        1.92283   0.00000   0.00000   0.00000   0.00000   1.92283
   A10        1.87158   0.00000   0.00000  -0.00000  -0.00000   1.87158
   A11        1.88284  -0.00000   0.00000  -0.00001  -0.00001   1.88284
[...]
 ,-0.00005336,0.00014050,-0.00070278,0.00019717,-0.00027669,-0.00011216
 ,0.00015834,-0.00013484,0.00010161,-0.00013382,-0.00025417,0.00001713,
 -0.00003369,-0.00002584,-0.00021208,0.00004851,0.00001244,0.11166738,0
 .14788713,-0.00316552,-0.00435902,0.00177498,-0.00041230,-0.00827890,-
 0.02646154,-0.09913531,-0.07673637,-0.10807020,-0.00162684,-0.00192168
 ,-0.00193142,0.00026425,-0.00122126,-0.00022058,0.00076027,0.00194911,
 -0.00075090,0.00106615,0.00088251,-0.00009134,0.00037960,0.00047559,0.
 00024388,-0.00071496,-0.00001784,0.00022066,0.00013843,0.00002327,0.00
 029051,0.00005325,0.00052270,0.00012984,0.00001464,-0.00012835,0.00013
 460,-0.00053367,0.00021526,-0.00011299,0.09858519,0.08252105,0.1205997
 1,-0.02311636,0.02244455,-0.01004012,-0.32831996,0.11022272,-0.1072212
 7,-0.04792979,0.01847020,0.02068280,-0.00101917,0.00009741,-0.00035890
 ,0.00047332,-0.00069806,0.00032012,0.00609343,0.00582928,-0.00315526,0
 .00057099,-0.00137712,0.00282658,-0.00029095,-0.00232705,-0.00026460,-
 0.00051500,-0.00008133,0.00125263,0.00007711,-0.00003517,0.00001772,0.
 00009680,0.00032227,0.00019971,0.00050596,-0.00075927,0.00023921,-0.00
 241850,0.00201978,-0.00000451,0.00268932,-0.00025678,-0.00441055,0.460
 20632,0.01768943,-0.03986182,0.01347795,0.13570524,-0.09025491,0.01988
 277,0.02051206,-0.01348921,-0.00235985,0.00208994,0.00161437,-0.005962
 43,-0.00019710,-0.00009617,0.00007592,0.00181720,0.00143902,0.00330831
 ,0.00526161,0.00051799,0.00160115,0.00086664,0.00213811,-0.00074189,0.
 00140055,-0.00165821,0.00028936,0.00010479,0.00018049,0.00005118,-0.00
 006241,-0.00003422,-0.00005910,0.00049145,-0.00080390,-0.00039443,-0.0
 0111803,-0.00024845,-0.00023779,0.00107245,-0.00054429,0.00093322,-0.1
 5358451,0.12831073,-0.00809887,0.02521231,-0.01540404,-0.07917548,-0.0
 0355939,-0.04192002,0.00823415,-0.00354415,-0.01220649,0.00125296,-0.0
 0095346,0.00673606,0.00037166,0.00075759,-0.00012446,-0.00238666,-0.00
 359757,0.00173368,-0.00149288,-0.00387407,0.00121476,-0.00062605,-0.00
 205587,0.00195799,-0.00162202,0.00170256,-0.00108648,-0.00001446,-0.00
 017713,0.00002593,0.00002354,0.00013768,0.00003009,-0.00004537,0.00015
 051,-0.00005270,0.00183586,-0.00020326,-0.00027101,0.00321982,0.000623
 77,0.00129072,0.13001016,-0.02323118,0.08216257,-0.00145694,-0.0003956
 5,0.00111887,0.00364085,0.00436258,-0.00176050,-0.03058371,-0.01541540
 ,-0.02054441,-0.11026600,-0.03771055,-0.03515772,-0.00445775,-0.007115
 06,-0.00141800,0.00039646,0.00033795,-0.00089520,0.00037942,0.00039551
 ,0.00001330,-0.00000598,-0.00022129,-0.00002055,0.00813668,0.00729346,
 0.00854720,0.00063863,0.00183076,0.00010808,0.00035858,0.00013973,-0.0
 0022506,0.00048129,-0.00019404,0.00005585,-0.00004308,0.00019592,0.000
 07427,-0.00381004,0.00270570,-0.00090820,-0.00053704,-0.00170399,-0.00
 051395,0.53918479,0.00024281,0.00232661,-0.00005877,-0.00458225,-0.008
 49545,-0.00429804,0.00391474,0.01328945,0.00955647,-0.03726031,-0.1167
 7499,-0.03276495,-0.01835351,-0.02176970,-0.01686625,-0.00011997,0.000
 52040,-0.00080224,-0.00000096,-0.00025374,0.00015427,-0.00012373,-0.00
 031334,0.00025209,-0.00454277,-0.00423173,-0.00414520,-0.00005323,0.00
 132393,-0.00088404,-0.00115178,-0.00430223,0.00245997,0.00010276,0.000
 53038,0.00106903,0.00081017,0.00013567,0.00001732,0.00475936,-0.001544
 08,0.00069751,-0.00028704,0.00169506,-0.00022459,-0.01235795,0.5293639
 2,-0.00096166,0.00277001,-0.00164458,-0.00630945,-0.00895384,0.0074297
 5,-0.01027966,-0.00284009,-0.00697507,-0.03420620,-0.02856937,-0.10724
 410,0.00834424,0.00485885,0.01108316,-0.00078807,-0.00115655,0.0025993
 9,-0.00051996,-0.00098560,0.00065110,-0.00012068,-0.00067390,0.0000589
 8,-0.01771120,-0.01567428,-0.01711947,0.00032727,0.00018051,0.00016133
 ,0.00114031,0.00473051,-0.00017318,-0.00032773,-0.00027168,-0.00082709
 ,0.00060728,-0.00042834,-0.00096426,-0.00037331,0.00104744,0.00126149,
 0.00082878,0.00077532,-0.00256670,0.03715958,-0.08122657,0.46483827,-0
 .00000933,-0.00011965,0.00009061,-0.00024203,-0.00077763,0.00004646,0.
 00031361,-0.00037645,0.00138168,-0.00572742,-0.01529295,0.01096402,-0.
 00167691,-0.00097138,-0.00299128,0.00022460,0.00039395,-0.00030405,-0.
 00001717,-0.00004472,0.00001977,-0.00003744,-0.00000707,0.00003059,0.0
 0081344,0.00039120,-0.00008237,0.00023236,-0.00023366,0.00004452,0.000
 09686,-0.00111763,0.00035073,-0.00008881,0.00006756,0.00006690,-0.0000
 5976,-0.00001335,-0.00001887,0.00020272,0.00025486,-0.00027769,-0.0001
 7178,0.00011656,-0.00020573,-0.07167562,-0.05685053,0.03903163,0.07349
 562,0.00005707,-0.00057635,0.00025597,0.00048887,0.00102581,-0.0001500
 8,0.00070387,0.00017838,0.00056746,-0.00502127,-0.01782311,0.01100812,
 -0.00256114,-0.00076175,-0.00394076,0.00031154,0.00029712,-0.00030014,
 0.00002529,0.00006420,-0.00001680,-0.00005226,0.00012051,-0.00005898,0
 .00034815,0.00006915,-0.00015517,0.00002803,0.00048198,-0.00004978,-0.
 00062769,-0.00129357,0.00047544,0.00002160,-0.00002818,-0.00000622,-0.
 00013690,0.00001369,0.00009575,0.00018547,0.00011583,-0.00049140,-0.00
 004034,-0.00012280,0.00004257,-0.05776456,-0.20383163,0.11489316,0.063
 49398,0.22292967,-0.00007868,-0.00058677,0.00021443,0.00095708,0.00163
 769,0.00049424,-0.00001734,-0.00056507,0.00000632,-0.00612527,-0.01714
 718,0.00995835,-0.00269494,-0.00116201,-0.00202865,-0.00006663,-0.0001
 9431,-0.00007406,0.00006652,0.00003616,-0.00002708,-0.00001218,0.00011
 047,-0.00005328,0.00021736,-0.00015761,0.00105545,0.00007441,0.0001352
 5,-0.00012409,-0.00029777,-0.00108511,0.00030130,-0.00009873,-0.000141
 01,0.00008288,-0.00011206,0.00009037,0.00017101,0.00024849,-0.00004005
 ,-0.00014984,0.00047762,-0.00040229,-0.00004368,0.03975871,0.11665431,
 -0.12621402,-0.04430449,-0.11956780,0.14237630,0.00006694,0.00097485,-
 0.00048247,0.00048620,-0.00110772,0.00209350,-0.00108429,-0.00285533,-
 0.00262200,-0.01450834,0.00866198,-0.00448901,0.00040913,0.00165057,0.
 00040621,-0.00039228,-0.00071664,0.00011576,-0.00000951,-0.00019448,0.
 00009531,-0.00000444,-0.00017736,0.00004475,0.00029015,-0.00003433,-0.
 00022793,0.00034203,-0.00099839,0.00016074,0.00048645,0.00004746,0.000
 03161,-0.00011953,-0.00000812,0.00019332,0.00018872,-0.00005662,0.0000
 5284,-0.00088273,0.00070812,-0.00000070,-0.00007816,0.00023130,-0.0007
 6963,-0.22266264,0.10080320,-0.06818837,0.00868537,-0.00431598,0.00289
 333,0.24185404,-0.00001968,-0.00031307,-0.00004696,0.00014053,0.000526
 37,-0.00041705,-0.00191266,-0.00327397,-0.00293045,-0.01817452,0.00993
 245,-0.00636440,-0.00051832,0.00136839,0.00003186,0.00014073,0.0002705
 5,-0.00009344,0.00004495,0.00006572,-0.00008568,0.00003044,0.00001417,
 -0.00000010,0.00056597,0.00033535,0.00044122,0.00023826,-0.00017956,-0
 .00000036,0.00018732,0.00031577,-0.00006301,0.00005889,-0.00001290,0.0
 0008440,-0.00002560,0.00002484,0.00006001,-0.00110751,0.00070800,-0.00
 023058,0.00025301,-0.00000584,0.00057222,0.10299205,-0.10801717,0.0408
 7775,0.02114482,-0.01171171,0.00770078,-0.11029862,0.11345373,0.000201
 56,-0.00042182,-0.00017163,-0.00017853,0.00063423,-0.00088418,-0.00092
 652,-0.00440140,-0.00326398,-0.01524631,0.01001081,-0.00597212,0.00065
 921,0.00087349,0.00061104,0.00017095,0.00011403,0.00009452,0.00004115,
 0.00010375,-0.00008504,0.00006990,0.00016068,0.00000377,0.00024509,0.0
 0036013,0.00001868,0.00017836,-0.00049845,0.00036192,0.00025566,0.0000
 4754,-0.00014918,-0.00002809,0.00001451,-0.00008330,-0.00016720,0.0000
 1900,-0.00000795,-0.00122157,0.00043197,0.00024772,0.00052301,0.000164
 21,0.00104931,-0.06844146,0.03965557,-0.07133087,-0.01503002,0.0082646
 2,-0.00565079,0.07398838,-0.04189044,0.07952851,-0.00371157,0.00040897
 ,-0.00399559,-0.02812273,-0.00180018,0.00455415,0.00242001,-0.00101195
 ,-0.00346095,0.01050399,0.00113661,-0.00450135,0.00011454,-0.00098738,
 -0.00133407,0.00061761,0.00113277,-0.00028844,0.00003184,-0.00116034,0
 .00095708,-0.00024022,-0.00002696,0.00060324,-0.00224313,-0.00108571,-
 0.00456818,-0.00001984,-0.00000489,0.00005140,-0.00022026,-0.00008457,
 0.00022086,-0.00028709,-0.00092955,0.00016988,0.00006025,0.00019612,0.
 00018127,-0.00028312,0.00047183,0.00072481,0.00264428,-0.00139374,-0.0
 0302224,-0.08806961,-0.00567657,0.01290805,-0.00590004,0.00596010,0.00
 999897,-0.01302118,0.00762325,0.02410666,0.44851459,-0.00381492,-0.004
 35558,0.00005780,-0.01674591,0.02229164,0.00862770,0.00681007,-0.00166
 746,-0.00201129,0.01121808,-0.01044708,-0.02196551,0.00069390,0.000749
 47,-0.00056868,0.00138925,-0.00267446,0.00342161,0.00029391,-0.0004824
 1,0.00042498,0.00018484,0.00052656,-0.00080859,-0.00276942,-0.00287682
 ,-0.00290024,-0.00015472,0.00015482,-0.00001223,-0.00015802,-0.0000359
 1,0.00034920,-0.00309047,-0.00337267,-0.00249126,-0.00143070,-0.000013
 88,-0.00134260,-0.00102172,0.00003874,0.00093310,-0.00021026,-0.005701
 47,-0.00441679,0.00162349,-0.07606665,-0.02150682,-0.01191136,0.008117
 87,0.01645431,0.00624754,-0.00411340,-0.01052393,0.07709824,0.53556651
 ,0.00858393,-0.00056298,0.00697618,-0.00444987,0.00839346,-0.04179234,
 -0.01072304,-0.00147401,0.00243221,0.00713494,-0.01223447,-0.02725220,
 0.00002533,0.00074716,0.00072593,-0.00182823,0.00071493,-0.00048155,0.
 00090047,0.00397047,-0.00248480,0.00023589,0.00040613,0.00077419,-0.00
 156363,-0.00313313,-0.00000934,-0.00005664,-0.00030638,0.00028520,0.00
 022192,0.00050043,-0.00027677,0.00046073,0.00073858,0.00070260,-0.0006
 5200,-0.00001091,0.00087700,0.00246058,-0.00044712,-0.00254844,-0.0078
 5830,0.00231410,0.00756778,0.02625903,-0.02270426,-0.11762180,0.011069
 90,-0.00811590,-0.01745925,-0.00465105,0.00354013,0.00558006,0.0506015
 0,0.00515990,0.45186653,-0.00317153,-0.02662037,0.01001264,-0.12534625
 ,-0.03115655,-0.09500602,-0.00252348,-0.00984080,-0.00353480,-0.000657
 94,-0.00305999,-0.00511440,0.00050899,0.00016932,-0.00107991,0.0028920
 3,0.00360119,0.00117701,0.00090399,0.00393127,-0.00232537,0.00140214,0
 .00274505,-0.00255853,-0.00181310,-0.00132867,-0.00028850,-0.00026496,
 0.00025975,0.00022906,0.00011617,-0.00021342,0.00001077,-0.00145900,-0
 .00003720,-0.00125975,-0.00284673,0.00034258,-0.00121709,0.00106162,0.
 00032911,-0.00009751,-0.06506063,-0.03004992,-0.04695153,-0.02805798,0
 .02727833,0.01828993,0.00188718,-0.00207840,-0.00360432,-0.00073969,-0
 .00068868,0.00112099,-0.19207884,0.02544506,-0.02680378,0.46373107,-0.
 01042005,-0.03285730,0.00284302,-0.03437731,-0.10783830,-0.11347927,-0
 .01180316,-0.01674061,-0.00772367,0.00068847,-0.00020340,-0.00484689,0
 .00070445,0.00019410,-0.00003772,-0.00082343,0.00230816,-0.00181151,-0
 .00023735,0.00064363,-0.00108688,0.00039362,0.00165737,-0.00115088,0.0
 0053832,-0.00118926,0.00131645,-0.00005690,-0.00019732,0.00028717,-0.0
 0008055,0.00026247,0.00008160,0.00065679,0.00008457,0.00087295,-0.0007
 0846,0.00072214,0.00039519,0.00272582,-0.00034088,-0.00473576,-0.00031
 417,0.01422347,0.01783645,0.01404958,-0.00310001,0.00595639,0.00054911
 ,0.00012013,-0.00036107,0.00184014,-0.00016035,-0.00289713,0.02445754,
 -0.08084114,-0.02644338,0.01656743,0.21052388,-0.00700919,-0.00286297,
 -0.02161461,-0.09958704,-0.09214873,-0.02850273,0.01774066,-0.01103138
 ,-0.04271726,-0.00484292,0.00198029,0.01224250,-0.00045241,-0.00113637
 ,0.00095180,0.00118368,-0.00251346,0.00253250,-0.00195818,-0.00525642,
 0.00435999,0.00134362,0.00416479,-0.00075938,-0.00208191,0.00277266,-0
 .00076400,0.00005648,0.00039009,-0.00049540,-0.00003245,-0.00018657,-0
 .00009284,-0.00068034,-0.00030358,-0.00159214,0.00047052,-0.00059770,-
 0.00122072,-0.00301601,0.00022623,0.00410307,-0.02052708,-0.01008644,-
 0.02832609,0.02293120,-0.00099303,-0.00180802,-0.00046290,-0.00078068,
 -0.00012792,0.00146881,-0.00099942,-0.00208706,-0.04589793,-0.01189301
 ,-0.02602981,0.17367744,0.12536428,0.14874806,0.00014501,0.00059065,0.
 00042274,-0.00027956,0.00196741,-0.00132314,-0.00082177,0.00000960,0.0
 0116967,-0.00197067,0.00057766,0.00096919,0.00001847,-0.00001877,0.000
 25416,-0.00004227,-0.00003358,-0.00015191,0.00006509,0.00007937,-0.000
 02011,-0.00002488,-0.00012009,0.00003191,0.00080868,0.00036770,0.00091
 814,0.00003421,-0.00004824,-0.00000527,0.00005687,0.00015747,-0.000054
 98,0.00008872,-0.00000637,0.00005226,0.00009052,-0.00001349,0.00004098
 ,0.00015092,-0.00006678,-0.00017658,-0.00253658,-0.00015033,-0.0008195
 0,0.00921266,0.01210442,0.00690276,0.00083511,0.00003144,-0.00037076,-
 0.00004428,-0.00025191,-0.00095016,-0.09306899,-0.09276694,-0.03769092
 ,-0.03510085,-0.02293526,-0.01434172,0.12087332,0.00043111,-0.00013801
 ,0.00013466,0.00226965,0.00017086,0.00200607,0.00030634,0.00017674,0.0
 0011022,0.00218054,0.00054955,-0.00102669,-0.00003431,0.00023859,0.000
 27132,0.00016844,-0.00051696,0.00081191,-0.00007475,0.00006710,-0.0000
 3043,0.00000975,0.00003280,0.00002751,-0.00044772,-0.00038949,-0.00039
 158,0.00002343,-0.00000592,0.00000994,0.00002389,-0.00001054,-0.000092
 23,-0.00051596,-0.00015905,-0.00062540,-0.00021673,-0.00018045,-0.0003
 0973,-0.00002998,-0.00000623,0.00004513,0.00026031,0.00023682,0.000064
 14,-0.00433586,-0.00679429,-0.00233262,0.00013040,0.00135460,0.0000479
 0,0.00025832,-0.00032021,-0.00026304,-0.09816482,-0.22410973,-0.075142
 29,0.00674653,0.01363506,0.00393901,0.10137759,0.23636450,-0.00060445,
 -0.00066124,-0.00104098,-0.00192941,-0.00051185,0.00785605,0.00201917,
 0.00034603,-0.00013793,0.00364231,-0.00118039,-0.00275075,0.00008508,0
 .00017273,-0.00038739,-0.00011832,-0.00004571,-0.00013988,-0.00013903,
 -0.00050680,0.00015438,-0.00002035,0.00004963,-0.00011633,-0.00103967,
 -0.00092403,-0.00114148,-0.00002211,0.00002034,-0.00003504,-0.00014898
 ,-0.00016025,0.00017526,0.00021526,0.00001122,0.00042402,0.00029727,0.
 00003761,0.00015471,-0.00031746,0.00011463,0.00046863,0.00046941,-0.00
 015968,-0.00108458,-0.01104266,-0.02093107,-0.01086540,-0.00088801,0.0
 0019050,0.00052567,0.00031788,-0.00015959,0.00009974,-0.03518260,-0.07
 430310,-0.07747583,-0.01018021,0.00031055,-0.00873638,0.04423780,0.079
 33928,0.08691016,0.00187216,0.00264647,0.00033145,0.00093843,-0.002428
 13,-0.00619792,-0.00264715,0.00182244,0.00189538,0.00070711,-0.0005969
 8,-0.00222685,0.00038753,0.00057573,0.00029197,-0.00099761,-0.00122578
 ,-0.00102043,0.00009697,0.00070619,-0.00015291,-0.00051253,-0.00030183
 ,0.00036729,0.00019561,-0.00026908,0.00023886,-0.00002404,-0.00005913,
 0.00006021,-0.00008587,0.00012206,0.00010371,0.00077314,-0.00183048,0.
 00048135,0.00041314,0.00008650,0.00062980,0.00042400,0.00000549,-0.000
 40958,-0.00293929,0.00148122,0.00041730,-0.00213032,-0.00946586,0.0142
 8309,-0.00064024,0.00144755,0.00309632,0.00066127,-0.00033149,0.000210
 37,-0.03732866,0.00341464,-0.01207905,-0.01194649,0.01938401,-0.016506
 43,0.00139270,-0.01034343,0.01043008,0.05125246,-0.00034227,-0.0002316
 1,-0.00105399,-0.00376154,-0.00655848,0.00195741,0.00045979,0.00003349
 ,-0.00018852,-0.00086064,0.00100350,0.00074455,-0.00005349,-0.00010876
 ,0.00011928,-0.00282559,-0.00180492,-0.00234012,0.00013541,-0.00024853
 ,0.00001915,-0.00008492,-0.00030015,0.00037162,0.00021445,0.00053141,0
 .00024140,0.00004445,-0.00007660,-0.00007184,-0.00001534,0.00005764,0.
 00008567,-0.00116799,-0.00344347,0.00018163,0.00014722,0.00000082,0.00
 075961,-0.00009815,0.00000831,0.00025998,0.00119234,0.00144126,-0.0004
 9088,0.00216784,0.00588037,-0.01139652,0.00090952,0.00053571,-0.001679
 25,-0.00078375,0.00104311,0.00030240,-0.00678806,-0.15088294,0.1245661
 6,0.01688069,-0.00200125,0.00274936,-0.00077528,-0.02021393,0.01888753
 ,-0.00466231,0.17526958,-0.00073502,0.00159025,-0.00024621,-0.00077832
 ,-0.00061013,0.00427159,0.00014805,0.00033429,-0.00095798,-0.00103743,
 0.00142262,0.00279232,0.00028018,-0.00037827,-0.00076579,-0.00020170,-
 0.00011197,0.00004280,-0.00007782,-0.00049640,0.00019374,-0.00009919,-
 0.00029889,-0.00022715,-0.00005448,0.00057698,0.00002363,0.00004565,-0
 .00007476,-0.00006787,-0.00005619,-0.00003866,0.00028999,0.00028844,-0
 .00021718,0.00150258,0.00063067,0.00010458,0.00004942,-0.00006789,0.00
 008213,0.00011446,-0.00028827,-0.00030998,-0.00111998,0.00440834,0.015
 66126,-0.02254100,0.00203929,-0.00221232,-0.00338354,-0.00039549,0.000
 15732,0.00184885,-0.00301983,0.11807633,-0.16252058,-0.00859341,0.0074
 0508,-0.01037341,0.00111710,-0.00661517,0.00702273,0.00640966,-0.13397
 868,0.18409289,-0.00062062,-0.00149250,0.00039904,-0.00390801,-0.00377
 983,0.00954407,-0.05288938,-0.03563464,0.01151182,0.00521345,0.0251390
 7,-0.01407367,-0.00559806,0.00062476,-0.00096391,-0.00020918,0.0000700
 6,0.00021580,0.00025844,0.00017634,0.00025767,0.00037265,0.00004675,0.
 00022793,0.00098704,-0.00051282,0.00028000,0.00032598,0.00168656,-0.00
 071703,0.00004559,0.00005381,0.00023301,0.00001014,0.00002706,-0.00010
 305,0.00014473,-0.00007062,-0.00014333,-0.00096254,-0.01731024,0.00988
 283,0.00157568,-0.00058041,0.00037892,0.00132736,0.00081067,-0.0000366
 0,-0.00054032,-0.00050439,-0.00000562,0.00007679,-0.00009122,0.0004185
 6,-0.00031183,-0.00034459,0.00040232,-0.00143570,-0.00079863,-0.001475
 92,0.00011755,-0.00002272,-0.00008099,0.00013768,0.00006764,0.00003763
 ,0.05588257,-0.00040547,0.00009946,0.00025156,0.00308244,0.00314648,-0
 .00636924,-0.03415898,-0.26240254,0.11706455,-0.00315134,-0.01138974,0
 .00494406,0.00344994,0.00019172,-0.00013684,0.00012040,0.00048400,-0.0
 0043839,0.00029417,0.00019807,-0.00003358,0.00008428,0.00010641,0.0000
 4181,0.00007979,0.00004574,-0.00028368,-0.00013341,-0.00074180,0.00068
 189,0.00000577,0.00042111,-0.00006588,-0.00002518,-0.00003638,0.000084
 21,-0.00011585,0.00002027,0.00002718,-0.00108669,-0.01374255,0.0086627
 3,-0.00114077,0.00102396,-0.00077147,-0.00088022,0.00042922,-0.0000737
 4,0.00026440,0.00072444,0.00022230,0.00012387,0.00004975,-0.00026073,0
 .00062928,0.00019600,-0.00047660,0.00077770,0.00109484,-0.00079695,-0.
 00007625,0.00001819,0.00006367,-0.00017779,0.00006546,-0.00006842,0.03
 243991,0.27999788,0.00049988,0.00239152,-0.00061311,0.00700166,0.00679
 187,-0.02113401,0.00989625,0.11997475,-0.10221458,0.00246832,0.0020293
 7,-0.00155486,-0.00073502,0.00085692,0.00055587,-0.00010907,-0.0007300
 7,0.00034132,0.00016600,0.00029535,-0.00031024,-0.00012407,-0.00004116
 ,0.00013970,-0.00028658,0.00019110,0.00069959,0.00020485,0.00015189,0.
 00021014,0.00014226,0.00031880,0.00007551,0.00007408,-0.00006579,0.000
 11847,-0.00002892,0.00010184,0.00017852,-0.00257344,-0.01377930,0.0094
 5699,-0.00371886,0.00107159,0.00043734,0.00049327,-0.00027879,-0.00018
 792,-0.00057068,0.00005245,0.00015025,-0.00003577,-0.00018419,0.000241
 97,0.00019333,0.00123912,-0.00183495,0.00409730,0.00190503,0.00230985,
 -0.00021165,0.00002210,0.00012063,-0.00065368,-0.00004595,-0.00004148,
 -0.01618947,-0.12226844,0.11285500\\-0.00000094,-0.00000022,0.00000100
 ,0.00000061,0.00000106,-0.00000129,0.00000031,0.00000036,0.00000168,-0
 .00000109,0.00000031,0.00000085,0.00000018,0.00000094,-0.00000257,-0.0
 0000094,-0.00000105,-0.00000066,-0.00000049,0.00000098,-0.00000044,0.0
 0000017,-0.00000029,0.00000011,-0.00000044,0.00000099,-0.00000039,-0.0
 0000089,-0.00000041,-0.00000175,-0.00000106,0.00000089,-0.00000151,0.0
 0000009,-0.00000106,-0.00000069,-0.00000091,-0.00000052,-0.00000175,-0
 .00000025,0.00000206,0.00000015,0.00000045,0.00000130,0.00000138,0.000
 00025,-0.00000121,-0.00000035,0.00000055,-0.00000026,0.00000093,0.0000
 0020,-0.00000123,-0.00000021,0.00000097,-0.00000070,0.00000141,0.00000
 073,-0.00000032,0.00000133,0.00000122,-0.00000161,0.00000145,0.0000009
 1,-0.00000158,0.00000020,0.00000038,0.00000157,0.00000113\\\@


 A CHEMICAL PHYSICIST MAKES PRECISE MEASUREMENTS ON IMPURE COMPOUNDS.
 A THEORETICAL PHYSICAL CHEMIST MAKES IMPRECISE
     MEASUREMENTS ON PURE COMPOUNDS.
 AN EXPERIMENTAL PHYSICAL CHEMIST MAKES IMPRECISE
     MEASUREMENTS ON IMPURE COMPOUNDS.
 Job cpu time:       0 days  1 hours 13 minutes 58.8 seconds.
 Elapsed time:       0 days  1 hours 14 minutes  4.2 seconds.
 File lengths (MBytes):  RWF=    153 Int=      0 D2E=      0 Chk=      7 Scr=      1
 Normal termination of Gaussian 16 at Thu Apr 11 21:18:32 2019.
